
Lmod is automatically replacing "intel/2020.1.217" with "gcc/10.3.0".


The following have been reloaded with a version change:
  1) gcccore/.9.3.0 => gcccore/.10.3.0        3) openmpi/4.0.3 => openmpi/4.1.1
  2) libfabric/1.10.1 => libfabric/1.12.1     4) ucx/1.8.0 => ucx/1.9.0

To execute ORCA, run: 
   ${EBROOTORCA}/orca orca.inp > orca.out

                                 *****************
                                 * O   R   C   A *
                                 *****************

                                            #,                                       
                                            ###                                      
                                            ####                                     
                                            #####                                    
                                            ######                                   
                                           ########,                                 
                                     ,,################,,,,,                         
                               ,,#################################,,                 
                          ,,##########################################,,             
                       ,#########################################, ''#####,          
                    ,#############################################,,   '####,        
                  ,##################################################,,,,####,       
                ,###########''''           ''''###############################       
              ,#####''   ,,,,##########,,,,          '''####'''          '####       
            ,##' ,,,,###########################,,,                        '##       
           ' ,,###''''                  '''############,,,                           
         ,,##''                                '''############,,,,        ,,,,,,###''
      ,#''                                            '''#######################'''  
     '                                                          ''''####''''         
             ,#######,   #######,   ,#######,      ##                                
            ,#'     '#,  ##    ##  ,#'     '#,    #''#        ######   ,####,        
            ##       ##  ##   ,#'  ##            #'  '#       #        #'  '#        
            ##       ##  #######   ##           ,######,      #####,   #    #        
            '#,     ,#'  ##    ##  '#,     ,#' ,#      #,         ##   #,  ,#        
             '#######'   ##     ##  '#######'  #'      '#     #####' # '####'        



                  #######################################################
                  #                        -***-                        #
                  #          Department of theory and spectroscopy      #
                  #    Directorship and core code : Frank Neese         #
                  #        Max Planck Institute fuer Kohlenforschung    #
                  #                Kaiser Wilhelm Platz 1               #
                  #                 D-45470 Muelheim/Ruhr               #
                  #                      Germany                        #
                  #                                                     #
                  #                  All rights reserved                #
                  #                        -***-                        #
                  #######################################################


                         Program Version 5.0.4 -  RELEASE  -


 With contributions from (in alphabetic order):
   Daniel Aravena         : Magnetic Suceptibility
   Michael Atanasov       : Ab Initio Ligand Field Theory (pilot matlab implementation)
   Alexander A. Auer      : GIAO ZORA, VPT2 properties, NMR spectrum
   Ute Becker             : Parallelization
   Giovanni Bistoni       : ED, misc. LED, open-shell LED, HFLD
   Martin Brehm           : Molecular dynamics
   Dmytro Bykov           : SCF Hessian
   Vijay G. Chilkuri      : MRCI spin determinant printing, contributions to CSF-ICE
   Dipayan Datta          : RHF DLPNO-CCSD density
   Achintya Kumar Dutta   : EOM-CC, STEOM-CC
   Dmitry Ganyushin       : Spin-Orbit,Spin-Spin,Magnetic field MRCI
   Miquel Garcia          : C-PCM and meta-GGA Hessian, CC/C-PCM, Gaussian charge scheme
   Yang Guo               : DLPNO-NEVPT2, F12-NEVPT2, CIM, IAO-localization
   Andreas Hansen         : Spin unrestricted coupled pair/coupled cluster methods
   Benjamin Helmich-Paris : MC-RPA, TRAH-SCF, COSX integrals
   Lee Huntington         : MR-EOM, pCC
   Robert Izsak           : Overlap fitted RIJCOSX, COSX-SCS-MP3, EOM
   Marcus Kettner         : VPT2
   Christian Kollmar      : KDIIS, OOCD, Brueckner-CCSD(T), CCSD density, CASPT2, CASPT2-K
   Simone Kossmann        : Meta GGA functionals, TD-DFT gradient, OOMP2, MP2 Hessian
   Martin Krupicka        : Initial AUTO-CI
   Lucas Lang             : DCDCAS
   Marvin Lechner         : AUTO-CI (C++ implementation), FIC-MRCC
   Dagmar Lenk            : GEPOL surface, SMD
   Dimitrios Liakos       : Extrapolation schemes; Compound Job, initial MDCI parallelization
   Dimitrios Manganas     : Further ROCIS development; embedding schemes
   Dimitrios Pantazis     : SARC Basis sets
   Anastasios Papadopoulos: AUTO-CI, single reference methods and gradients
   Taras Petrenko         : DFT Hessian,TD-DFT gradient, ASA, ECA, R-Raman, ABS, FL, XAS/XES, NRVS
   Peter Pinski           : DLPNO-MP2, DLPNO-MP2 Gradient
   Christoph Reimann      : Effective Core Potentials
   Marius Retegan         : Local ZFS, SOC
   Christoph Riplinger    : Optimizer, TS searches, QM/MM, DLPNO-CCSD(T), (RO)-DLPNO pert. Triples
   Tobias Risthaus        : Range-separated hybrids, TD-DFT gradient, RPA, STAB
   Michael Roemelt        : Original ROCIS implementation
   Masaaki Saitow         : Open-shell DLPNO-CCSD energy and density
   Barbara Sandhoefer     : DKH picture change effects
   Avijit Sen             : IP-ROCIS
   Kantharuban Sivalingam : CASSCF convergence, NEVPT2, FIC-MRCI
   Bernardo de Souza      : ESD, SOC TD-DFT
   Georgi Stoychev        : AutoAux, RI-MP2 NMR, DLPNO-MP2 response
   Willem Van den Heuvel  : Paramagnetic NMR
   Boris Wezisla          : Elementary symmetry handling
   Frank Wennmohs         : Technical directorship


 We gratefully acknowledge several colleagues who have allowed us to
 interface, adapt or use parts of their codes:
   Stefan Grimme, W. Hujo, H. Kruse, P. Pracht,  : VdW corrections, initial TS optimization,
                  C. Bannwarth, S. Ehlert          DFT functionals, gCP, sTDA/sTD-DF
   Ed Valeev, F. Pavosevic, A. Kumar             : LibInt (2-el integral package), F12 methods
   Garnet Chan, S. Sharma, J. Yang, R. Olivares  : DMRG
   Ulf Ekstrom                                   : XCFun DFT Library
   Mihaly Kallay                                 : mrcc  (arbitrary order and MRCC methods)
   Jiri Pittner, Ondrej Demel                    : Mk-CCSD
   Frank Weinhold                                : gennbo (NPA and NBO analysis)
   Christopher J. Cramer and Donald G. Truhlar   : smd solvation model
   Lars Goerigk                                  : TD-DFT with DH, B97 family of functionals
   V. Asgeirsson, H. Jonsson                     : NEB implementation
   FAccTs GmbH                                   : IRC, NEB, NEB-TS, DLPNO-Multilevel, CI-OPT
                                                   MM, QMMM, 2- and 3-layer-ONIOM, Crystal-QMMM,
                                                   LR-CPCM, SF, NACMEs, symmetry and pop. for TD-DFT,
                                                   nearIR, NL-DFT gradient (VV10), updates on ESD,
                                                   ML-optimized integration grids
   S Lehtola, MJT Oliveira, MAL Marques          : LibXC Library
   Liviu Ungur et al                             : ANISO software


 Your calculation uses the libint2 library for the computation of 2-el integrals
 For citations please refer to: http://libint.valeyev.net

 Your ORCA version has been built with support for libXC version: 5.1.0
 For citations please refer to: https://tddft.org/programs/libxc/

 This ORCA versions uses:
   CBLAS   interface :  Fast vector & matrix operations
   LAPACKE interface :  Fast linear algebra routines
   SCALAPACK package :  Parallel linear algebra routines
   Shared memory     :  Shared parallel matrices
   BLAS/LAPACK       :  OpenBLAS 0.3.15  USE64BITINT DYNAMIC_ARCH NO_AFFINITY Haswell SINGLE_THREADED
        Core in use  :  Haswell
   Copyright (c) 2011-2014, The OpenBLAS Project


Your calculation utilizes the atom-pairwise dispersion correction
with the Becke-Johnson damping scheme (D3BJ)
Cite in your paper:
S.Grimme, S.Ehrlich, L.Goerigk, J Comput Chem, (2011), 32, 1456–1465 
S.Grimme, J.Antony, S.Ehrlich and H.Krieg, J.Chem.Phys., 132, (2010), 154104 
   

================================================================================

----- Orbital basis set information -----
Your calculation utilizes the basis: def2-TZVP
   F. Weigend and R. Ahlrichs, Phys. Chem. Chem. Phys. 7, 3297 (2005).

----- AuxJ basis set information -----
Your calculation utilizes the auxiliary basis: def2/J
   F. Weigend, Phys. Chem. Chem. Phys. 8, 1057 (2006).

================================================================================
                                        WARNINGS
                       Please study these warnings very carefully!
================================================================================


WARNING: Geometry Optimization
  ===> : Switching off AutoStart
         For restart on a previous wavefunction, please use MOREAD

INFO   : the flag for use of the SHARK integral package has been found!

================================================================================
                                       INPUT FILE
================================================================================
NAME = Fentanyl_OProt_21.inp
|  1> ! wB97X-D3BJ TightOpt Freq def2-TZVP def2/J RIJCOSX TightSCF defgrid3 CHELPG
|  2> %maxcore 3400
|  3> 
|  4> %pal nprocs 8 
|  5> end
|  6> 
|  7> %chelpg
|  8> grid 0.1
|  9> rmax 3.0
| 10> end
| 11> 
| 12> *xyz 1 1
| 13> O         2.9254947280     1.9554128762     1.2069306572
| 14> N        -1.9323586652     2.4768397326    -0.6599778221
| 15> N         1.8621786959     0.5146323528    -0.1326603080
| 16> C         0.7680264777     1.4885087016    -0.3075293561
| 17> C         0.0588533211     1.3400698560    -1.6456951039
| 18> C        -0.2598656265     1.3516322432     0.8145669262
| 19> C        -0.9942733353     2.4645417257    -1.7451210770
| 20> C        -1.3180546992     2.4605635069     0.6353651005
| 21> C        -3.2454041334     1.9220275417    -0.8552522061
| 22> C        -3.3893544662     0.3896493649    -0.9935676876
| 23> C         1.7580831588    -0.7636539777    -0.7774493668
| 24> C         2.8790225201     0.7815942536     0.6291474371
| 25> C        -3.1338112537    -0.3912758036     0.2633137615
| 26> C         3.9697995557    -0.2205019104     0.8388890292
| 27> C         1.1196341617    -1.8109701374    -0.1297834054
| 28> C         2.2918575708    -0.9324407609    -2.0480877760
| 29> C         5.0852852676     0.2652764742     1.7603332307
| 30> C        -2.2692385311    -1.4806004648     0.2566525045
| 31> C        -3.7840275735    -0.0714845853     1.4511673955
| 32> C         1.0035486618    -3.0330422087    -0.7713767057
| 33> C         2.1687460754    -2.1582611166    -2.6792203801
| 34> C         1.5231353941    -3.2063539882    -2.0433584496
| 35> C        -2.0529863538    -2.2230814398     1.4061565395
| 36> C        -3.5572256417    -0.8011821309     2.6033842597
| 37> C        -2.6877941850    -1.8792169148     2.5862154786
| 38> H         1.2270967130     2.4822794961    -0.2501521530
| 39> H        -0.4281116258     0.3669146037    -1.7049649054
| 40> H         0.7586986091     1.4339818521    -2.4763379449
| 41> H         0.2133602560     1.4636915898     1.7909866215
| 42> H        -0.7408445096     0.3745883502     0.7618804634
| 43> H        -0.4614410917     3.4257994577    -1.7531770033
| 44> H        -1.5365326818     2.3733042738    -2.6859971091
| 45> H        -2.0873866681     2.3458530007     1.3981796379
| 46> H        -0.8199883161     3.4280125718     0.7915127756
| 47> H        -3.8667261971     2.2680416503    -0.0271203404
| 48> H        -3.6442226611     2.3724346991    -1.7694659574
| 49> H        -2.7384078641     0.0312575720    -1.7937554693
| 50> H        -4.4202194344     0.2024694540    -1.3064684058
| 51> H         4.3829075773    -0.4910519700    -0.1371919066
| 52> H         3.5229630217    -1.1334529956     1.2431746863
| 53> H         0.7105457595    -1.6676399949     0.8584393393
| 54> H         2.7937823971    -0.1120985311    -2.5380758102
| 55> H         5.8266020161    -0.5222844965     1.8622105508
| 56> H         4.7141529350     0.4867703989     2.7601863128
| 57> H         5.5974488230     1.1349787399     1.3505722596
| 58> H        -1.7749398539    -1.7650383370    -0.6640424462
| 59> H        -4.4888195422     0.7463246395     1.4730531316
| 60> H         0.5026508762    -3.8497113377    -0.2761623563
| 61> H         2.5759250918    -2.2914080734    -3.6688414510
| 62> H         1.4251867449    -4.1585783822    -2.5398267470
| 63> H        -1.3970329661    -3.0815014228     1.3781175445
| 64> H        -4.0712201721    -0.5375805539     3.5153065693
| 65> H        -2.5196627853    -2.4568347924     3.4823267742
| 66> H         3.7346904727     2.0753407739     1.7345827430
| 67> *
| 68> 
| 69> 
| 70>                          ****END OF INPUT****
================================================================================

                       *****************************
                       * Geometry Optimization Run *
                       *****************************

Geometry optimization settings:
Update method            Update   .... BFGS
Choice of coordinates    CoordSys .... Z-matrix Internals
Initial Hessian          InHess   .... Almoef's Model

Convergence Tolerances:
Energy Change            TolE     ....  1.0000e-06 Eh
Max. Gradient            TolMAXG  ....  1.0000e-04 Eh/bohr
RMS Gradient             TolRMSG  ....  3.0000e-05 Eh/bohr
Max. Displacement        TolMAXD  ....  1.0000e-03 bohr
RMS Displacement         TolRMSD  ....  6.0000e-04 bohr
Strict Convergence                ....  False
------------------------------------------------------------------------------
                        ORCA OPTIMIZATION COORDINATE SETUP
------------------------------------------------------------------------------

The optimization will be done in new redundant internal coordinates
Making redundant internal coordinates   ...  (new redundants) done
Evaluating the initial hessian          ...  (Almloef) done
Evaluating the coordinates              ...  done
Calculating the B-matrix                .... done
Calculating the G-matrix                .... done
Diagonalizing the G-matrix              .... done
Small eigenvalue found = 1.995e-03
Small eigenvalue found = 3.996e-03
Small eigenvalue found = 5.834e-03
Small eigenvalue found = 7.104e-03
Small eigenvalue found = 1.325e-02
Small eigenvalue found = 1.814e-02
Small eigenvalue found = 2.845e-02
The first mode is                       ....  149
The number of degrees of freedom        ....  156

    -----------------------------------------------------------------
                    Redundant Internal Coordinates


    -----------------------------------------------------------------
         Definition                    Initial Value    Approx d2E/dq
    -----------------------------------------------------------------
      1. B(C   3,N   2)                  1.4752         0.409224   
      2. B(C   4,C   3)                  1.5217         0.385105   
      3. B(C   5,C   3)                  1.5279         0.376505   
      4. B(C   6,C   4)                  1.5438         0.355074   
      5. B(C   6,N   1)                  1.4345         0.475263   
      6. B(C   7,N   1)                  1.4337         0.476569   
      7. B(C   7,C   5)                  1.5432         0.355832   
      8. B(C   8,N   1)                  1.4388         0.467819   
      9. B(C   9,C   8)                  1.5453         0.353121   
     10. B(C  10,N   2)                  1.4355         0.473493   
     11. B(C  11,N   2)                  1.2983         0.783740   
     12. B(C  11,O   0)                  1.3091         0.753156   
     13. B(C  12,C   9)                  1.5016         0.414608   
     14. B(C  13,C  11)                  1.4960         0.423292   
     15. B(C  14,C  10)                  1.3871         0.631561   
     16. B(C  15,C  10)                  1.3885         0.628254   
     17. B(C  16,C  13)                  1.5262         0.378798   
     18. B(C  17,C  12)                  1.3907         0.623100   
     19. B(C  18,C  12)                  1.3914         0.621550   
     20. B(C  19,C  14)                  1.3851         0.636081   
     21. B(C  20,C  15)                  1.3842         0.638158   
     22. B(C  21,C  20)                  1.3855         0.635193   
     23. B(C  21,C  19)                  1.3849         0.636615   
     24. B(C  22,C  17)                  1.3854         0.635386   
     25. B(C  23,C  18)                  1.3826         0.642084   
     26. B(C  24,C  23)                  1.3851         0.636261   
     27. B(C  24,C  22)                  1.3834         0.640158   
     28. B(H  25,C   3)                  1.0962         0.352012   
     29. B(H  26,C   4)                  1.0898         0.360356   
     30. B(H  27,C   4)                  1.0902         0.359815   
     31. B(H  28,C   5)                  1.0908         0.359013   
     32. B(H  29,C   5)                  1.0903         0.359717   
     33. B(H  30,C   6)                  1.0991         0.348278   
     34. B(H  31,C   6)                  1.0898         0.360393   
     35. B(H  32,C   7)                  1.0895         0.360819   
     36. B(H  33,C   7)                  1.0993         0.348034   
     37. B(H  34,C   8)                  1.0916         0.358002   
     38. B(H  35,C   8)                  1.0944         0.354327   
     39. B(H  36,C   9)                  1.0920         0.357456   
     40. B(H  37,C   9)                  1.0934         0.355569   
     41. B(H  38,C  13)                  1.0939         0.354994   
     42. B(H  39,C  13)                  1.0939         0.354994   
     43. B(H  40,C  14)                  1.0791         0.374796   
     44. B(H  41,C  15)                  1.0793         0.374479   
     45. B(H  42,C  16)                  1.0864         0.364945   
     46. B(H  43,C  16)                  1.0893         0.361070   
     47. B(H  44,C  16)                  1.0893         0.361013   
     48. B(H  45,C  17)                  1.0830         0.369464   
     49. B(H  46,C  18)                  1.0798         0.373815   
     50. B(H  47,C  19)                  1.0785         0.375689   
     51. B(H  48,C  20)                  1.0784         0.375824   
     52. B(H  49,C  21)                  1.0783         0.375867   
     53. B(H  50,H  40)                  2.5906         0.000278   
     54. B(H  50,C  22)                  1.0807         0.372594   
     55. B(H  51,C  23)                  1.0795         0.374288   
     56. B(H  52,C  24)                  1.0793         0.374513   
     57. B(H  53,O   0)                  0.9734         0.494897   
     58. A(C  11,O   0,H  53)          112.2843         0.379505   
     59. A(C   7,N   1,C   8)          120.6157         0.389040   
     60. A(C   6,N   1,C   8)          119.3959         0.388853   
     61. A(C   6,N   1,C   7)          113.7764         0.390114   
     62. A(C   3,N   2,C  11)          120.9786         0.414780   
     63. A(C  10,N   2,C  11)          120.2297         0.425715   
     64. A(C   3,N   2,C  10)          118.7407         0.379662   
     65. A(C   4,C   3,C   5)          108.8784         0.365734   
     66. A(N   2,C   3,H  25)          106.3599         0.326025   
     67. A(N   2,C   3,C   4)          112.6749         0.368683   
     68. A(N   2,C   3,C   5)          110.6579         0.367257   
     69. A(C   5,C   3,H  25)          108.9365         0.323526   
     70. A(C   4,C   3,H  25)          109.2464         0.324728   
     71. A(C   3,C   4,C   6)          107.6673         0.362088   
     72. A(C   3,C   4,H  27)          111.2499         0.325901   
     73. A(C   6,C   4,H  26)          110.0043         0.321666   
     74. A(H  26,C   4,H  27)          108.8034         0.290836   
     75. A(C   6,C   4,H  27)          109.0314         0.321587   
     76. A(C   3,C   4,H  26)          110.0702         0.325981   
     77. A(C   3,C   5,H  29)          109.9731         0.324679   
     78. A(H  28,C   5,H  29)          109.0683         0.290653   
     79. A(C   3,C   5,C   7)          108.1587         0.360827   
     80. A(C   3,C   5,H  28)          110.8750         0.324574   
     81. A(C   7,C   5,H  29)          109.6232         0.321685   
     82. A(C   7,C   5,H  28)          109.1227         0.321582   
     83. A(C   4,C   6,H  31)          109.5150         0.321672   
     84. A(C   4,C   6,H  30)          107.8662         0.319878   
     85. A(N   1,C   6,H  30)          108.3659         0.333597   
     86. A(N   1,C   6,C   4)          113.8052         0.373048   
     87. A(H  30,C   6,H  31)          107.9461         0.289357   
     88. A(N   1,C   6,H  31)          109.1737         0.335498   
     89. A(H  32,C   7,H  33)          108.2497         0.289379   
     90. A(N   1,C   7,H  33)          108.2087         0.333711   
     91. A(C   5,C   7,H  33)          107.7718         0.319953   
     92. A(C   5,C   7,H  32)          109.1016         0.321847   
     93. A(N   1,C   7,H  32)          109.3433         0.335717   
     94. A(N   1,C   7,C   5)          114.0082         0.373361   
     95. A(C   9,C   8,H  35)          107.4211         0.320491   
     96. A(N   1,C   8,H  35)          106.6934         0.333677   
     97. A(C   9,C   8,H  34)          109.2207         0.321032   
     98. A(N   1,C   8,H  34)          107.1128         0.334249   
     99. A(N   1,C   8,C   9)          118.6558         0.371682   
    100. A(H  34,C   8,H  35)          107.2092         0.289837   
    101. A(C   8,C   9,H  37)          106.4502         0.320674   
    102. A(H  36,C   9,H  37)          107.2243         0.289926   
    103. A(C  12,C   9,H  37)          108.1154         0.329246   
    104. A(C   8,C   9,C  12)          115.1458         0.366343   
    105. A(C  12,C   9,H  36)          109.9508         0.329534   
    106. A(C   8,C   9,H  36)          109.6032         0.320952   
    107. A(C  14,C  10,C  15)          120.8277         0.436551   
    108. A(N   2,C  10,C  15)          119.4342         0.411935   
    109. A(N   2,C  10,C  14)          119.7367         0.412319   
    110. A(O   0,C  11,N   2)          118.1084         0.463012   
    111. A(N   2,C  11,C  13)          121.0372         0.420005   
    112. A(O   0,C  11,C  13)          120.8542         0.417036   
    113. A(C  17,C  12,C  18)          118.3343         0.434651   
    114. A(C   9,C  12,C  18)          121.0314         0.404206   
    115. A(C   9,C  12,C  17)          120.6055         0.404383   
    116. A(C  11,C  13,C  16)          113.8504         0.372109   
    117. A(H  38,C  13,H  39)          106.1188         0.289539   
    118. A(C  16,C  13,H  39)          109.9415         0.324298   
    119. A(C  11,C  13,H  39)          108.2421         0.330287   
    120. A(C  16,C  13,H  38)          109.9638         0.324298   
    121. A(C  11,C  13,H  38)          108.4170         0.330287   
    122. A(C  10,C  14,C  19)          119.2398         0.437526   
    123. A(C  19,C  14,H  40)          120.6374         0.356857   
    124. A(C  10,C  14,H  40)          120.1198         0.356425   
    125. A(C  10,C  15,C  20)          119.3865         0.437369   
    126. A(C  20,C  15,H  41)          120.4929         0.357003   
    127. A(C  10,C  15,H  41)          120.1200         0.356056   
    128. A(H  43,C  16,H  44)          110.0680         0.291078   
    129. A(H  42,C  16,H  44)          107.0519         0.291567   
    130. A(C  13,C  16,H  44)          111.7559         0.325195   
    131. A(H  42,C  16,H  43)          107.0876         0.291574   
    132. A(C  13,C  16,H  43)          111.7083         0.325203   
    133. A(C  13,C  16,H  42)          108.9423         0.325775   
    134. A(C  12,C  17,C  22)          120.8528         0.436378   
    135. A(C  22,C  17,H  45)          119.5620         0.355924   
    136. A(C  12,C  17,H  45)          119.5723         0.354747   
    137. A(C  23,C  18,H  46)          119.3338         0.357268   
    138. A(C  12,C  18,H  46)          119.7602         0.355302   
    139. A(C  12,C  18,C  23)          120.8975         0.437007   
    140. A(C  14,C  19,C  21)          120.2918         0.438155   
    141. A(C  21,C  19,H  47)          120.0817         0.357052   
    142. A(C  14,C  19,H  47)          119.6262         0.357001   
    143. A(C  15,C  20,C  21)          120.1382         0.438236   
    144. A(C  21,C  20,H  48)          120.2460         0.356938   
    145. A(C  15,C  20,H  48)          119.6156         0.357221   
    146. A(C  19,C  21,C  20)          120.1109         0.438045   
    147. A(C  20,C  21,H  49)          119.9358         0.356945   
    148. A(C  19,C  21,H  49)          119.9533         0.357081   
    149. A(C  24,C  22,H  50)          119.8739         0.356887   
    150. A(C  17,C  22,H  50)          119.9274         0.356434   
    151. A(C  17,C  22,C  24)          120.1935         0.438508   
    152. A(C  24,C  23,H  51)          119.9621         0.356792   
    153. A(C  18,C  23,H  51)          119.8042         0.357345   
    154. A(C  18,C  23,C  24)          120.2276         0.438854   
    155. A(C  23,C  24,H  52)          120.2673         0.356828   
    156. A(C  22,C  24,H  52)          120.2464         0.357199   
    157. A(C  22,C  24,C  23)          119.4782         0.438617   
    158. D(C   4,C   3,N   2,C  11)    152.6445         0.014287   
    159. D(C   4,C   3,N   2,C  10)    -29.9463         0.014287   
    160. D(H  25,C   3,N   2,C  10)   -149.6137         0.014287   
    161. D(C   5,C   3,N   2,C  11)    -85.1958         0.014287   
    162. D(H  25,C   3,N   2,C  11)     32.9771         0.014287   
    163. D(C   5,C   3,N   2,C  10)     92.2134         0.014287   
    164. D(C   6,C   4,C   3,N   2)   -176.3873         0.011804   
    165. D(H  27,C   4,C   3,N   2)    -56.9773         0.011804   
    166. D(H  27,C   4,C   3,C   5)    179.8651         0.011804   
    167. D(C   6,C   4,C   3,H  25)    -58.4044         0.011804   
    168. D(H  26,C   4,C   3,H  25)   -178.3123         0.011804   
    169. D(H  26,C   4,C   3,C   5)    -59.4527         0.011804   
    170. D(H  26,C   4,C   3,N   2)     63.7048         0.011804   
    171. D(H  27,C   4,C   3,H  25)     61.0056         0.011804   
    172. D(C   6,C   4,C   3,C   5)     60.4551         0.011804   
    173. D(H  29,C   5,C   3,N   2)    -64.4585         0.011309   
    174. D(H  28,C   5,C   3,H  25)    -60.3433         0.011309   
    175. D(H  28,C   5,C   3,C   4)   -179.3967         0.011309   
    176. D(C   7,C   5,C   3,H  25)     59.2648         0.011309   
    177. D(H  29,C   5,C   3,H  25)    178.9514         0.011309   
    178. D(C   7,C   5,C   3,C   4)    -59.7886         0.011309   
    179. D(H  29,C   5,C   3,C   4)     59.8979         0.011309   
    180. D(C   7,C   5,C   3,N   2)    175.8549         0.011309   
    181. D(H  28,C   5,C   3,N   2)     56.2468         0.011309   
    182. D(H  31,C   6,N   1,C   8)     21.6662         0.019309   
    183. D(H  31,C   6,N   1,C   7)    174.1588         0.019309   
    184. D(H  30,C   6,N   1,C   8)    138.9996         0.019309   
    185. D(H  30,C   6,N   1,C   7)    -68.5078         0.019309   
    186. D(C   4,C   6,N   1,C   8)   -101.0148         0.019309   
    187. D(N   1,C   6,C   4,C   3)    -56.2923         0.010135   
    188. D(C   4,C   6,N   1,C   7)     51.4778         0.019309   
    189. D(H  31,C   6,C   4,H  26)    -58.8362         0.010135   
    190. D(H  31,C   6,C   4,C   3)   -178.7858         0.010135   
    191. D(H  30,C   6,C   4,H  27)    -56.8381         0.010135   
    192. D(H  30,C   6,C   4,H  26)   -176.0754         0.010135   
    193. D(H  30,C   6,C   4,C   3)     63.9750         0.010135   
    194. D(N   1,C   6,C   4,H  27)   -177.1054         0.010135   
    195. D(H  31,C   6,C   4,H  27)     60.4011         0.010135   
    196. D(N   1,C   6,C   4,H  26)     63.6573         0.010135   
    197. D(H  33,C   7,C   5,H  29)    174.5397         0.010175   
    198. D(H  33,C   7,C   5,H  28)     55.1520         0.010175   
    199. D(H  33,C   7,C   5,C   3)    -65.5537         0.010175   
    200. D(H  32,C   7,C   5,H  29)     57.2162         0.010175   
    201. D(H  32,C   7,C   5,H  28)    -62.1715         0.010175   
    202. D(H  32,C   7,C   5,C   3)    177.1228         0.010175   
    203. D(N   1,C   7,C   5,H  29)    -65.3295         0.010175   
    204. D(N   1,C   7,C   5,H  28)    175.2828         0.010175   
    205. D(N   1,C   7,C   5,C   3)     54.5770         0.010175   
    206. D(H  33,C   7,N   1,C   8)   -138.5776         0.019419   
    207. D(H  33,C   7,N   1,C   6)     69.2996         0.019419   
    208. D(H  32,C   7,N   1,C   8)    -20.8760         0.019419   
    209. D(H  32,C   7,N   1,C   6)   -172.9989         0.019419   
    210. D(C   5,C   7,N   1,C   8)    101.5373         0.019419   
    211. D(C   5,C   7,N   1,C   6)    -50.5856         0.019419   
    212. D(H  35,C   8,N   1,C   7)    158.9371         0.018695   
    213. D(H  35,C   8,N   1,C   6)    -50.4774         0.018695   
    214. D(H  34,C   8,N   1,C   7)     44.3851         0.018695   
    215. D(H  34,C   8,N   1,C   6)   -165.0295         0.018695   
    216. D(C   9,C   8,N   1,C   7)    -79.7255         0.018695   
    217. D(C   9,C   8,N   1,C   6)     70.8600         0.018695   
    218. D(C  12,C   9,C   8,H  35)   -169.0669         0.010032   
    219. D(C  12,C   9,C   8,H  34)    -53.1039         0.010032   
    220. D(C  12,C   9,C   8,N   1)     69.9651         0.010032   
    221. D(H  37,C   9,C   8,H  35)    -49.2819         0.010032   
    222. D(H  37,C   9,C   8,H  34)     66.6811         0.010032   
    223. D(H  37,C   9,C   8,N   1)   -170.2499         0.010032   
    224. D(H  36,C   9,C   8,H  35)     66.3704         0.010032   
    225. D(H  36,C   9,C   8,H  34)   -177.6666         0.010032   
    226. D(H  36,C   9,C   8,N   1)    -54.5976         0.010032   
    227. D(C  15,C  10,N   2,C  11)    -91.0248         0.017677   
    228. D(C  15,C  10,N   2,C   3)     91.5460         0.017677   
    229. D(C  14,C  10,N   2,C  11)     89.3927         0.017677   
    230. D(C  14,C  10,N   2,C   3)    -88.0364         0.017677   
    231. D(C  13,C  11,N   2,C  10)      0.8354         0.052109   
    232. D(C  13,C  11,N   2,C   3)    178.2062         0.052109   
    233. D(O   0,C  11,N   2,C  10)   -179.3476         0.052109   
    234. D(O   0,C  11,N   2,C   3)     -1.9768         0.052109   
    235. D(C  13,C  11,O   0,H  53)      1.5889         0.043121   
    236. D(N   2,C  11,O   0,H  53)   -178.2285         0.043121   
    237. D(C  18,C  12,C   9,H  37)    -67.0769         0.012721   
    238. D(C  18,C  12,C   9,H  36)    176.1664         0.012721   
    239. D(C  18,C  12,C   9,C   8)     51.7857         0.012721   
    240. D(C  17,C  12,C   9,H  37)    110.9379         0.012721   
    241. D(C  17,C  12,C   9,H  36)     -5.8189         0.012721   
    242. D(C  17,C  12,C   9,C   8)   -130.1995         0.012721   
    243. D(H  39,C  13,C  11,N   2)    -57.5969         0.013243   
    244. D(H  39,C  13,C  11,O   0)    122.5911         0.013243   
    245. D(H  38,C  13,C  11,N   2)     57.1021         0.013243   
    246. D(H  38,C  13,C  11,O   0)   -122.7098         0.013243   
    247. D(C  16,C  13,C  11,N   2)    179.8314         0.013243   
    248. D(C  16,C  13,C  11,O   0)      0.0194         0.013243   
    249. D(H  40,C  14,C  10,C  15)    179.8851         0.027665   
    250. D(H  40,C  14,C  10,N   2)     -0.5384         0.027665   
    251. D(C  19,C  14,C  10,C  15)     -0.7473         0.027665   
    252. D(C  19,C  14,C  10,N   2)    178.8293         0.027665   
    253. D(H  41,C  15,C  10,C  14)   -179.4732         0.027357   
    254. D(H  41,C  15,C  10,N   2)      0.9490         0.027357   
    255. D(C  20,C  15,C  10,C  14)      0.7890         0.027357   
    256. D(C  20,C  15,C  10,N   2)   -178.7888         0.027357   
    257. D(H  44,C  16,C  13,H  39)    176.0462         0.011440   
    258. D(H  44,C  16,C  13,C  11)    -62.3197         0.011440   
    259. D(H  43,C  16,C  13,H  39)    -60.1375         0.011440   
    260. D(H  43,C  16,C  13,H  38)   -176.6257         0.011440   
    261. D(H  43,C  16,C  13,C  11)     61.4966         0.011440   
    262. D(H  42,C  16,C  13,H  39)     57.9620         0.011440   
    263. D(H  44,C  16,C  13,H  38)     59.5580         0.011440   
    264. D(H  42,C  16,C  13,H  38)    -58.5262         0.011440   
    265. D(H  42,C  16,C  13,C  11)    179.5961         0.011440   
    266. D(H  45,C  17,C  12,C  18)    178.2176         0.026882   
    267. D(H  45,C  17,C  12,C   9)      0.1502         0.026882   
    268. D(C  22,C  17,C  12,C  18)     -0.4647         0.026882   
    269. D(C  22,C  17,C  12,C   9)   -178.5321         0.026882   
    270. D(H  46,C  18,C  12,C  17)   -177.6782         0.026741   
    271. D(H  46,C  18,C  12,C   9)      0.3806         0.026741   
    272. D(C  23,C  18,C  12,C  17)      1.2563         0.026741   
    273. D(C  23,C  18,C  12,C   9)    179.3151         0.026741   
    274. D(H  47,C  19,C  14,H  40)     -0.2371         0.028088   
    275. D(H  47,C  19,C  14,C  10)   -179.6014         0.028088   
    276. D(C  21,C  19,C  14,H  40)    179.5533         0.028088   
    277. D(C  21,C  19,C  14,C  10)      0.1891         0.028088   
    278. D(H  48,C  20,C  15,H  41)     -0.1589         0.028284   
    279. D(H  48,C  20,C  15,C  10)    179.5779         0.028284   
    280. D(C  21,C  20,C  15,H  41)    179.9922         0.028284   
    281. D(C  21,C  20,C  15,C  10)     -0.2710         0.028284   
    282. D(H  49,C  21,C  19,C  14)   -179.6832         0.028138   
    283. D(C  20,C  21,C  19,H  47)   -179.8907         0.028138   
    284. D(C  20,C  21,C  19,C  14)      0.3198         0.028138   
    285. D(H  49,C  21,C  20,H  48)     -0.1231         0.028004   
    286. D(H  49,C  21,C  20,C  15)    179.7249         0.028004   
    287. D(C  19,C  21,C  20,H  48)    179.8739         0.028004   
    288. D(C  19,C  21,C  20,C  15)     -0.2781         0.028004   
    289. D(H  49,C  21,C  19,H  47)      0.1063         0.028138   
    290. D(H  50,C  22,C  17,H  45)     -0.2039         0.028023   
    291. D(H  50,C  22,C  17,C  12)    178.4785         0.028023   
    292. D(C  24,C  22,C  17,H  45)   -179.3699         0.028023   
    293. D(C  24,C  22,C  17,C  12)     -0.6875         0.028023   
    294. D(H  51,C  23,C  18,H  46)     -1.0657         0.028657   
    295. D(H  51,C  23,C  18,C  12)    179.9953         0.028657   
    296. D(C  24,C  23,C  18,H  46)    178.0391         0.028657   
    297. D(C  24,C  23,C  18,C  12)     -0.8999         0.028657   
    298. D(H  52,C  24,C  23,H  51)     -0.1339         0.028105   
    299. D(H  52,C  24,C  23,C  18)   -179.2373         0.028105   
    300. D(C  22,C  24,C  23,H  51)    178.8309         0.028105   
    301. D(C  22,C  24,C  23,C  18)     -0.2725         0.028105   
    302. D(H  52,C  24,C  22,H  50)      0.8559         0.028474   
    303. D(H  52,C  24,C  22,C  17)   -179.9777         0.028474   
    304. D(C  23,C  24,C  22,H  50)   -178.1091         0.028474   
    305. D(C  23,C  24,C  22,C  17)      1.0573         0.028474   
    -----------------------------------------------------------------

Number of atoms                         .... 54
Number of degrees of freedom            .... 305

         *************************************************************
         *                GEOMETRY OPTIMIZATION CYCLE   1            *
         *************************************************************
---------------------------------
CARTESIAN COORDINATES (ANGSTROEM)
---------------------------------
  O      2.925495    1.955413    1.206931
  N     -1.932359    2.476840   -0.659978
  N      1.862179    0.514632   -0.132660
  C      0.768026    1.488509   -0.307529
  C      0.058853    1.340070   -1.645695
  C     -0.259866    1.351632    0.814567
  C     -0.994273    2.464542   -1.745121
  C     -1.318055    2.460564    0.635365
  C     -3.245404    1.922028   -0.855252
  C     -3.389354    0.389649   -0.993568
  C      1.758083   -0.763654   -0.777449
  C      2.879023    0.781594    0.629147
  C     -3.133811   -0.391276    0.263314
  C      3.969800   -0.220502    0.838889
  C      1.119634   -1.810970   -0.129783
  C      2.291858   -0.932441   -2.048088
  C      5.085285    0.265276    1.760333
  C     -2.269239   -1.480600    0.256653
  C     -3.784028   -0.071485    1.451167
  C      1.003549   -3.033042   -0.771377
  C      2.168746   -2.158261   -2.679220
  C      1.523135   -3.206354   -2.043358
  C     -2.052986   -2.223081    1.406157
  C     -3.557226   -0.801182    2.603384
  C     -2.687794   -1.879217    2.586215
  H      1.227097    2.482279   -0.250152
  H     -0.428112    0.366915   -1.704965
  H      0.758699    1.433982   -2.476338
  H      0.213360    1.463692    1.790987
  H     -0.740845    0.374588    0.761880
  H     -0.461441    3.425799   -1.753177
  H     -1.536533    2.373304   -2.685997
  H     -2.087387    2.345853    1.398180
  H     -0.819988    3.428013    0.791513
  H     -3.866726    2.268042   -0.027120
  H     -3.644223    2.372435   -1.769466
  H     -2.738408    0.031258   -1.793755
  H     -4.420219    0.202469   -1.306468
  H      4.382908   -0.491052   -0.137192
  H      3.522963   -1.133453    1.243175
  H      0.710546   -1.667640    0.858439
  H      2.793782   -0.112099   -2.538076
  H      5.826602   -0.522284    1.862211
  H      4.714153    0.486770    2.760186
  H      5.597449    1.134979    1.350572
  H     -1.774940   -1.765038   -0.664042
  H     -4.488820    0.746325    1.473053
  H      0.502651   -3.849711   -0.276162
  H      2.575925   -2.291408   -3.668841
  H      1.425187   -4.158578   -2.539827
  H     -1.397033   -3.081501    1.378118
  H     -4.071220   -0.537581    3.515307
  H     -2.519663   -2.456835    3.482327
  H      3.734690    2.075341    1.734583

----------------------------
CARTESIAN COORDINATES (A.U.)
----------------------------
  NO LB      ZA    FRAG     MASS         X           Y           Z
   0 O     8.0000    0    15.999    5.528384    3.695195    2.280768
   1 N     7.0000    0    14.007   -3.651629    4.680549   -1.247177
   2 N     7.0000    0    14.007    3.519008    0.972514   -0.250692
   3 C     6.0000    0    12.011    1.451360    2.812874   -0.581146
   4 C     6.0000    0    12.011    0.111217    2.532365   -3.109913
   5 C     6.0000    0    12.011   -0.491075    2.554215    1.539308
   6 C     6.0000    0    12.011   -1.878904    4.657309   -3.297801
   7 C     6.0000    0    12.011   -2.490762    4.649791    1.200666
   8 C     6.0000    0    12.011   -6.132925    3.632106   -1.616192
   9 C     6.0000    0    12.011   -6.404952    0.736331   -1.877571
  10 C     6.0000    0    12.011    3.322296   -1.443097   -1.469166
  11 C     6.0000    0    12.011    5.440564    1.476999    1.188916
  12 C     6.0000    0    12.011   -5.922045   -0.739404    0.497591
  13 C     6.0000    0    12.011    7.501834   -0.416688    1.585271
  14 C     6.0000    0    12.011    2.115802   -3.422238   -0.245255
  15 C     6.0000    0    12.011    4.330983   -1.762058   -3.870325
  16 C     6.0000    0    12.011    9.609796    0.501300    3.326548
  17 C     6.0000    0    12.011   -4.288239   -2.797929    0.485003
  18 C     6.0000    0    12.011   -7.150776   -0.135086    2.742309
  19 C     6.0000    0    12.011    1.896432   -5.731619   -1.457691
  20 C     6.0000    0    12.011    4.098336   -4.078522   -5.062993
  21 C     6.0000    0    12.011    2.878309   -6.059131   -3.861388
  22 C     6.0000    0    12.011   -3.879582   -4.201015    2.657251
  23 C     6.0000    0    12.011   -6.722182   -1.514015    4.919683
  24 C     6.0000    0    12.011   -5.079195   -3.551205    4.887239
  25 H     1.0000    0     1.008    2.318877    4.690828   -0.472719
  26 H     1.0000    0     1.008   -0.809014    0.693368   -3.221917
  27 H     1.0000    0     1.008    1.433733    2.709833   -4.679601
  28 H     1.0000    0     1.008    0.403192    2.765976    3.384474
  29 H     1.0000    0     1.008   -1.399993    0.707869    1.439745
  30 H     1.0000    0     1.008   -0.871997    6.473823   -3.313024
  31 H     1.0000    0     1.008   -2.903626    4.484895   -5.075799
  32 H     1.0000    0     1.008   -3.944589    4.433020    2.642177
  33 H     1.0000    0     1.008   -1.549553    6.478005    1.495742
  34 H     1.0000    0     1.008   -7.307054    4.285978   -0.051250
  35 H     1.0000    0     1.008   -6.886583    4.483252   -3.343806
  36 H     1.0000    0     1.008   -5.174841    0.059068   -3.389707
  37 H     1.0000    0     1.008   -8.353004    0.382612   -2.468867
  38 H     1.0000    0     1.008    8.282495   -0.927954   -0.259255
  39 H     1.0000    0     1.008    6.657435   -2.141916    2.349260
  40 H     1.0000    0     1.008    1.342737   -3.151383    1.622215
  41 H     1.0000    0     1.008    5.279484   -0.211836   -4.796268
  42 H     1.0000    0     1.008   11.010682   -0.986975    3.519068
  43 H     1.0000    0     1.008    8.908458    0.919863    5.215996
  44 H     1.0000    0     1.008   10.577645    2.144799    2.552212
  45 H     1.0000    0     1.008   -3.354150   -3.335439   -1.254858
  46 H     1.0000    0     1.008   -8.482640    1.410349    2.783667
  47 H     1.0000    0     1.008    0.949872   -7.274900   -0.521871
  48 H     1.0000    0     1.008    4.867793   -4.330134   -6.933106
  49 H     1.0000    0     1.008    2.693213   -7.858574   -4.799577
  50 H     1.0000    0     1.008   -2.640010   -5.823194    2.604265
  51 H     1.0000    0     1.008   -7.693491   -1.015880    6.642967
  52 H     1.0000    0     1.008   -4.761473   -4.642745    6.580644
  53 H     1.0000    0     1.008    7.057542    3.921826    3.277886

--------------------------------
INTERNAL COORDINATES (ANGSTROEM)
--------------------------------
 O      0   0   0     0.000000000000     0.00000000     0.00000000
 N      1   0   0     5.230293761012     0.00000000     0.00000000
 N      1   2   0     2.236290109707    53.75705044     0.00000000
 C      3   1   2     1.475189277119    89.90518032     8.33735303
 C      4   3   1     1.521725410680   112.67486590   151.62395066
 C      4   3   1     1.527873492634   110.65793633   273.78364441
 C      2   1   3     1.434465479125    70.23092467   297.26457110
 C      2   1   3     1.433718091291    43.81478471   123.84890267
 C      2   1   3     1.438762334014   149.05230703    51.77406968
 C      9   2   1     1.545327068121   118.65582168   330.21897521
 C      3   1   2     1.435480669997   151.31480577   191.20648990
 C      3   1   2     1.298303146336    31.08854563   190.03209449
 C     10   9   2     1.501631589087   115.14584686    69.96508354
 C     12   3   1     1.495988903285   121.03717439   180.18300372
 C     11   3   1     1.387068656492   119.73674094    88.69089369
 C     11   3   1     1.388497773863   119.43423800   268.27337806
 C     14  12   3     1.526220308106   113.85038202   179.83138997
 C     13  10   9     1.390740300167   120.60550273   229.80048600
 C     13  10   9     1.391417960802   121.03138016    51.78571192
 C     15  11   3     1.385127414258   119.23976629   178.82925885
 C     16  11   3     1.384239989563   119.38651527   181.21118605
 C     20  15  11     1.384898877937   120.29177028     0.18908935
 C     18  13  10     1.385425035469   120.85278935   181.46791737
 C     19  13  10     1.382570550269   120.89747649   179.31508609
 C     23  18  13     1.383388193479   120.19352434   359.31250118
 H      4   3   1     1.096183386289   106.35994906    31.95654301
 H      5   4   3     1.089806824147   110.07015341    63.70483384
 H      5   4   3     1.090215767384   111.24993099   303.02269192
 H      6   4   3     1.090823292013   110.87496604    56.24679186
 H      6   4   3     1.090289557044   109.97305871   295.54145822
 H      7   2   1     1.099086677700   108.36589860   286.51556921
 H      7   2   1     1.089778500098   109.17365422   169.18214955
 H      8   2   1     1.089456835801   109.34333757   193.77292282
 H      8   2   1     1.099276994933   108.20865031    76.07139732
 H      9   2   1     1.091590242343   107.11284651    94.32950915
 H      9   2   1     1.094399199808   106.69338139   208.88155356
 H     10   9   2     1.092005788440   109.60322822   305.40238844
 H     10   9   2     1.093446734485   106.45023882   189.75009861
 H     14  12   3     1.093887364171   108.41695142    57.10212948
 H     14  12   3     1.093887318064   108.24212757   302.40308713
 H     15  11   3     1.079111228607   120.11975239   359.46164620
 H     16  11   3     1.079341548773   120.12004514     0.94898823
 H     17  14  12     1.086361722691   108.94231988   179.59606486
 H     17  14  12     1.089268081220   111.70825878    61.49656480
 H     17  14  12     1.089310603951   111.75592632   297.68025621
 H     18  13  10     1.083012131819   119.57225377     0.15023022
 H     19  13  10     1.079825278810   119.76023524     0.38055939
 H     20  15  11     1.078463865752   119.62620887   180.39860285
 H     21  16  11     1.078365767015   119.61556333   179.57793929
 H     22  20  15     1.078334829602   119.95327929   180.31679052
 H     23  18  13     1.080715457135   119.92737338   178.47849996
 H     24  19  13     1.079480647082   119.80420505   179.99530483
 H     25  23  18     1.079317392702   120.24636936   180.02232547
 H      1   2   3     0.973446032164   162.41547241   194.64627938

---------------------------
INTERNAL COORDINATES (A.U.)
---------------------------
 O      0   0   0     0.000000000000     0.00000000     0.00000000
 N      1   0   0     9.883822808270     0.00000000     0.00000000
 N      1   2   0     4.225975863344    53.75705044     0.00000000
 C      3   1   2     2.787703729453    89.90518032     8.33735303
 C      4   3   1     2.875644277215   112.67486590   151.62395066
 C      4   3   1     2.887262468355   110.65793633   273.78364441
 C      2   1   3     2.710746904111    70.23092467   297.26457110
 C      2   1   3     2.709334545789    43.81478471   123.84890267
 C      2   1   3     2.718866783088   149.05230703    51.77406968
 C      9   2   1     2.920244946085   118.65582168   330.21897521
 C      3   1   2     2.712665336832   151.31480577   191.20648990
 C      3   1   2     2.453437385384    31.08854563   190.03209449
 C     10   9   2     2.837672457419   115.14584686    69.96508354
 C     12   3   1     2.827009326594   121.03717439   180.18300372
 C     11   3   1     2.621179889716   119.73674094    88.69089369
 C     11   3   1     2.623880530161   119.43423800   268.27337806
 C     14  12   3     2.884138402350   113.85038202   179.83138997
 C     13  10   9     2.628118290722   120.60550273   229.80048600
 C     13  10   9     2.629398883735   121.03138016    51.78571192
 C     15  11   3     2.617511473534   119.23976629   178.82925885
 C     16  11   3     2.615834483897   119.38651527   181.21118605
 C     20  15  11     2.617079602475   120.29177028     0.18908935
 C     18  13  10     2.618073896115   120.85278935   181.46791737
 C     19  13  10     2.612679700832   120.89747649   179.31508609
 C     23  18  13     2.614224822575   120.19352434   359.31250118
 H      4   3   1     2.071486392640   106.35994906    31.95654301
 H      5   4   3     2.059436436517   110.07015341    63.70483384
 H      5   4   3     2.060209227238   111.24993099   303.02269192
 H      6   4   3     2.061357282407   110.87496604    56.24679186
 H      6   4   3     2.060348669487   109.97305871   295.54145822
 H      7   2   1     2.076972818295   108.36589860   286.51556921
 H      7   2   1     2.059382911821   109.17365422   169.18214955
 H      8   2   1     2.058775054392   109.34333757   193.77292282
 H      8   2   1     2.077332465744   108.20865031    76.07139732
 H      9   2   1     2.062806608489   107.11284651    94.32950915
 H      9   2   1     2.068114768819   106.69338139   208.88155356
 H     10   9   2     2.063591876808   109.60322822   305.40238844
 H     10   9   2     2.066314870208   106.45023882   189.75009861
 H     14  12   3     2.067147539639   108.41695142    57.10212948
 H     14  12   3     2.067147452511   108.24212757   302.40308713
 H     15  11   3     2.039224690107   120.11975239   359.46164620
 H     16  11   3     2.039659932144   120.12004514     0.94898823
 H     17  14  12     2.052926138260   108.94231988   179.59606486
 H     17  14  12     2.058418359928   111.70825878    61.49656480
 H     17  14  12     2.058498716244   111.75592632   297.68025621
 H     18  13  10     2.046596328853   119.57225377     0.15023022
 H     19  13  10     2.040574049436   119.76023524     0.38055939
 H     20  15  11     2.038001351601   119.62620887   180.39860285
 H     21  16  11     2.037815971855   119.61556333   179.57793929
 H     22  20  15     2.037757508616   119.95327929   180.31679052
 H     23  18  13     2.042256242680   119.92737338   178.47849996
 H     24  19  13     2.039922789853   119.80420505   179.99530483
 H     25  23  18     2.039614283786   120.24636936   180.02232547
 H      1   2   3     1.839546406943   162.41547241   194.64627938

---------------------
BASIS SET INFORMATION
---------------------
There are 4 groups of distinct atoms

 Group   1 Type O   : 11s6p2d1f contracted to 5s3p2d1f pattern {62111/411/11/1}
 Group   2 Type N   : 11s6p2d1f contracted to 5s3p2d1f pattern {62111/411/11/1}
 Group   3 Type C   : 11s6p2d1f contracted to 5s3p2d1f pattern {62111/411/11/1}
 Group   4 Type H   : 5s1p contracted to 3s1p pattern {311/1}

Atom   0O    basis set group =>   1
Atom   1N    basis set group =>   2
Atom   2N    basis set group =>   2
Atom   3C    basis set group =>   3
Atom   4C    basis set group =>   3
Atom   5C    basis set group =>   3
Atom   6C    basis set group =>   3
Atom   7C    basis set group =>   3
Atom   8C    basis set group =>   3
Atom   9C    basis set group =>   3
Atom  10C    basis set group =>   3
Atom  11C    basis set group =>   3
Atom  12C    basis set group =>   3
Atom  13C    basis set group =>   3
Atom  14C    basis set group =>   3
Atom  15C    basis set group =>   3
Atom  16C    basis set group =>   3
Atom  17C    basis set group =>   3
Atom  18C    basis set group =>   3
Atom  19C    basis set group =>   3
Atom  20C    basis set group =>   3
Atom  21C    basis set group =>   3
Atom  22C    basis set group =>   3
Atom  23C    basis set group =>   3
Atom  24C    basis set group =>   3
Atom  25H    basis set group =>   4
Atom  26H    basis set group =>   4
Atom  27H    basis set group =>   4
Atom  28H    basis set group =>   4
Atom  29H    basis set group =>   4
Atom  30H    basis set group =>   4
Atom  31H    basis set group =>   4
Atom  32H    basis set group =>   4
Atom  33H    basis set group =>   4
Atom  34H    basis set group =>   4
Atom  35H    basis set group =>   4
Atom  36H    basis set group =>   4
Atom  37H    basis set group =>   4
Atom  38H    basis set group =>   4
Atom  39H    basis set group =>   4
Atom  40H    basis set group =>   4
Atom  41H    basis set group =>   4
Atom  42H    basis set group =>   4
Atom  43H    basis set group =>   4
Atom  44H    basis set group =>   4
Atom  45H    basis set group =>   4
Atom  46H    basis set group =>   4
Atom  47H    basis set group =>   4
Atom  48H    basis set group =>   4
Atom  49H    basis set group =>   4
Atom  50H    basis set group =>   4
Atom  51H    basis set group =>   4
Atom  52H    basis set group =>   4
Atom  53H    basis set group =>   4
---------------------------------
AUXILIARY/J BASIS SET INFORMATION
---------------------------------
There are 4 groups of distinct atoms

 Group   1 Type O   : 12s5p4d2f1g contracted to 6s4p3d1f1g pattern {711111/2111/211/2/1}
 Group   2 Type N   : 12s5p4d2f1g contracted to 6s4p3d1f1g pattern {711111/2111/211/2/1}
 Group   3 Type C   : 12s5p4d2f1g contracted to 6s4p3d1f1g pattern {711111/2111/211/2/1}
 Group   4 Type H   : 5s2p1d contracted to 3s1p1d pattern {311/2/1}

Atom   0O    basis set group =>   1
Atom   1N    basis set group =>   2
Atom   2N    basis set group =>   2
Atom   3C    basis set group =>   3
Atom   4C    basis set group =>   3
Atom   5C    basis set group =>   3
Atom   6C    basis set group =>   3
Atom   7C    basis set group =>   3
Atom   8C    basis set group =>   3
Atom   9C    basis set group =>   3
Atom  10C    basis set group =>   3
Atom  11C    basis set group =>   3
Atom  12C    basis set group =>   3
Atom  13C    basis set group =>   3
Atom  14C    basis set group =>   3
Atom  15C    basis set group =>   3
Atom  16C    basis set group =>   3
Atom  17C    basis set group =>   3
Atom  18C    basis set group =>   3
Atom  19C    basis set group =>   3
Atom  20C    basis set group =>   3
Atom  21C    basis set group =>   3
Atom  22C    basis set group =>   3
Atom  23C    basis set group =>   3
Atom  24C    basis set group =>   3
Atom  25H    basis set group =>   4
Atom  26H    basis set group =>   4
Atom  27H    basis set group =>   4
Atom  28H    basis set group =>   4
Atom  29H    basis set group =>   4
Atom  30H    basis set group =>   4
Atom  31H    basis set group =>   4
Atom  32H    basis set group =>   4
Atom  33H    basis set group =>   4
Atom  34H    basis set group =>   4
Atom  35H    basis set group =>   4
Atom  36H    basis set group =>   4
Atom  37H    basis set group =>   4
Atom  38H    basis set group =>   4
Atom  39H    basis set group =>   4
Atom  40H    basis set group =>   4
Atom  41H    basis set group =>   4
Atom  42H    basis set group =>   4
Atom  43H    basis set group =>   4
Atom  44H    basis set group =>   4
Atom  45H    basis set group =>   4
Atom  46H    basis set group =>   4
Atom  47H    basis set group =>   4
Atom  48H    basis set group =>   4
Atom  49H    basis set group =>   4
Atom  50H    basis set group =>   4
Atom  51H    basis set group =>   4
Atom  52H    basis set group =>   4
Atom  53H    basis set group =>   4


           ************************************************************
           *        Program running with 8 parallel MPI-processes     *
           *              working on a common directory               *
           ************************************************************
------------------------------------------------------------------------------
                           ORCA GTO INTEGRAL CALCULATION
                           -- RI-GTO INTEGRALS CHOSEN --
------------------------------------------------------------------------------
------------------------------------------------------------------------------
                   ___                                                        
                  /   \      - P O W E R E D   B Y -                         
                 /     \                                                     
                 |  |  |   _    _      __       _____    __    __             
                 |  |  |  | |  | |    /  \     |  _  \  |  |  /  |          
                  \  \/   | |  | |   /    \    | | | |  |  | /  /          
                 / \  \   | |__| |  /  /\  \   | |_| |  |  |/  /          
                |  |  |   |  __  | /  /__\  \  |    /   |      \           
                |  |  |   | |  | | |   __   |  |    \   |  |\   \          
                \     /   | |  | | |  |  |  |  | |\  \  |  | \   \       
                 \___/    |_|  |_| |__|  |__|  |_| \__\ |__|  \__/        
                                                                              
                      - O R C A' S   B I G   F R I E N D -                    
                                      &                                       
                       - I N T E G R A L  F E E D E R -                       
                                                                              
 v1 FN, 2020, v2 2021                                                         
------------------------------------------------------------------------------


Reading SHARK input file Fentanyl_OProt_21.SHARKINP.tmp ... ok
----------------------
SHARK INTEGRAL PACKAGE
----------------------

Number of atoms                             ...     54
Number of basis functions                   ...    949
Number of shells                            ...    391
Maximum angular momentum                    ...      3
Integral batch strategy                     ... SHARK/LIBINT Hybrid
RI-J (if used) integral strategy            ... SPLIT-RIJ (Revised 2003 algorithm where possible)
Printlevel                                  ...      1
Contraction scheme used                     ... SEGMENTED contraction
Coulomb Range Separation                    ... NOT USED
Exchange Range Separation                   ... Long Range
   Mu parameter                             ...  0.300000
   Scaling (regular/separated)              ...  0.167000  0.833000
Finite Nucleus Model                        ... NOT USED
Auxiliary Coulomb fitting basis             ... AVAILABLE
   # of basis functions in Aux-J            ...   1544
   # of shells in Aux-J                     ...    520
   Maximum angular momentum in Aux-J        ...      4
Auxiliary J/K fitting basis                 ... NOT available
Auxiliary Correlation fitting basis         ... NOT available
Auxiliary 'external' fitting basis          ... NOT available
Integral threshold                          ...     2.500000e-11
Primitive cut-off                           ...     2.500000e-12
Primitive pair pre-selection threshold      ...     2.500000e-12

Calculating pre-screening integrals         ... done (  0.1 sec) Dimension = 391
Organizing shell pair data                  ... done (  0.6 sec)
Shell pair information
Total number of shell pairs                 ...     76636
Shell pairs after pre-screening             ...     55469
Total number of primitive shell pairs       ...    228112
Primitive shell pairs kept                  ...    109030
          la=0 lb=0:  16002 shell pairs
          la=1 lb=0:  16418 shell pairs
          la=1 lb=1:   4273 shell pairs
          la=2 lb=0:   7539 shell pairs
          la=2 lb=1:   3910 shell pairs
          la=2 lb=2:    931 shell pairs
          la=3 lb=0:   3492 shell pairs
          la=3 lb=1:   1849 shell pairs
          la=3 lb=2:    849 shell pairs
          la=3 lb=3:    206 shell pairs

Calculating one electron integrals          ... done (  0.1 sec)
Calculating RI/J V-Matrix + Cholesky decomp.... done (  0.2 sec)
Calculating Nuclear repulsion               ... done (  0.0 sec) ENN=   2322.802040920022 Eh

SHARK setup successfully completed in   2.2 seconds

Maximum memory used throughout the entire GTOINT-calculation: 80.1 MB
[1703434110.708483] [gra297:20511:0]          mpool.c:42   UCX  WARN  object 0xab71c40 was not returned to mpool ucp_requests
[1703434110.708520] [gra297:20511:0]          mpool.c:42   UCX  WARN  object 0xab71e00 was not returned to mpool ucp_requests
[1703434110.708533] [gra297:20511:0]          mpool.c:42   UCX  WARN  object 0xab71fc0 was not returned to mpool ucp_requests
[1703434110.708547] [gra297:20511:0]          mpool.c:42   UCX  WARN  object 0xab72180 was not returned to mpool ucp_requests
[1703434110.708558] [gra297:20511:0]          mpool.c:42   UCX  WARN  object 0xab72340 was not returned to mpool ucp_requests
[1703434110.708588] [gra297:20511:0]          mpool.c:42   UCX  WARN  object 0xab72500 was not returned to mpool ucp_requests
[1703434110.708600] [gra297:20511:0]          mpool.c:42   UCX  WARN  object 0xab726c0 was not returned to mpool ucp_requests
[1703434110.708610] [gra297:20511:0]          mpool.c:42   UCX  WARN  object 0xab72880 was not returned to mpool ucp_requests
[1703434110.708626] [gra297:20511:0]          mpool.c:42   UCX  WARN  object 0xab72a40 was not returned to mpool ucp_requests
[1703434110.708637] [gra297:20511:0]          mpool.c:42   UCX  WARN  object 0xab72c00 was not returned to mpool ucp_requests
[1703434110.708647] [gra297:20511:0]          mpool.c:42   UCX  WARN  object 0xab72dc0 was not returned to mpool ucp_requests
[1703434110.708657] [gra297:20511:0]          mpool.c:42   UCX  WARN  object 0xab72f80 was not returned to mpool ucp_requests
[1703434110.709182] [gra297:20507:0]          mpool.c:42   UCX  WARN  object 0xa7f6e80 was not returned to mpool ucp_requests
[1703434110.709217] [gra297:20507:0]          mpool.c:42   UCX  WARN  object 0xa7f7040 was not returned to mpool ucp_requests
[1703434110.709231] [gra297:20507:0]          mpool.c:42   UCX  WARN  object 0xa7f7200 was not returned to mpool ucp_requests
[1703434110.709244] [gra297:20507:0]          mpool.c:42   UCX  WARN  object 0xa7f73c0 was not returned to mpool ucp_requests
[1703434110.709258] [gra297:20507:0]          mpool.c:42   UCX  WARN  object 0xa7f7580 was not returned to mpool ucp_requests
[1703434110.709274] [gra297:20507:0]          mpool.c:42   UCX  WARN  object 0xa7f7740 was not returned to mpool ucp_requests
[1703434110.709285] [gra297:20507:0]          mpool.c:42   UCX  WARN  object 0xa7f7900 was not returned to mpool ucp_requests
[1703434110.709296] [gra297:20507:0]          mpool.c:42   UCX  WARN  object 0xa7f7ac0 was not returned to mpool ucp_requests
[1703434110.709306] [gra297:20507:0]          mpool.c:42   UCX  WARN  object 0xa7f7c80 was not returned to mpool ucp_requests
[1703434110.709317] [gra297:20507:0]          mpool.c:42   UCX  WARN  object 0xa7f7e40 was not returned to mpool ucp_requests
[1703434110.709328] [gra297:20507:0]          mpool.c:42   UCX  WARN  object 0xa7f8000 was not returned to mpool ucp_requests
[1703434110.709339] [gra297:20507:0]          mpool.c:42   UCX  WARN  object 0xa7f81c0 was not returned to mpool ucp_requests
[1703434110.710282] [gra297:20515:0]          mpool.c:42   UCX  WARN  object 0xbf48e00 was not returned to mpool ucp_requests
[1703434110.710312] [gra297:20515:0]          mpool.c:42   UCX  WARN  object 0xbf48fc0 was not returned to mpool ucp_requests
[1703434110.710325] [gra297:20515:0]          mpool.c:42   UCX  WARN  object 0xbf49180 was not returned to mpool ucp_requests
[1703434110.710336] [gra297:20515:0]          mpool.c:42   UCX  WARN  object 0xbf49340 was not returned to mpool ucp_requests
[1703434110.710346] [gra297:20515:0]          mpool.c:42   UCX  WARN  object 0xbf49500 was not returned to mpool ucp_requests
[1703434110.710360] [gra297:20515:0]          mpool.c:42   UCX  WARN  object 0xbf496c0 was not returned to mpool ucp_requests
[1703434110.710395] [gra297:20515:0]          mpool.c:42   UCX  WARN  object 0xbf49880 was not returned to mpool ucp_requests
[1703434110.710406] [gra297:20515:0]          mpool.c:42   UCX  WARN  object 0xbf49a40 was not returned to mpool ucp_requests
[1703434110.710415] [gra297:20515:0]          mpool.c:42   UCX  WARN  object 0xbf49c00 was not returned to mpool ucp_requests
[1703434110.710424] [gra297:20515:0]          mpool.c:42   UCX  WARN  object 0xbf49dc0 was not returned to mpool ucp_requests
[1703434110.710433] [gra297:20515:0]          mpool.c:42   UCX  WARN  object 0xbf49f80 was not returned to mpool ucp_requests
[1703434110.710442] [gra297:20515:0]          mpool.c:42   UCX  WARN  object 0xbf4a140 was not returned to mpool ucp_requests
[1703434110.719786] [gra297:20506:0]          mpool.c:42   UCX  WARN  object 0xbb2d200 was not returned to mpool ucp_requests
[1703434110.719821] [gra297:20506:0]          mpool.c:42   UCX  WARN  object 0xbb2d3c0 was not returned to mpool ucp_requests
[1703434110.719833] [gra297:20506:0]          mpool.c:42   UCX  WARN  object 0xbb2d580 was not returned to mpool ucp_requests
[1703434110.719851] [gra297:20506:0]          mpool.c:42   UCX  WARN  object 0xbb2d740 was not returned to mpool ucp_requests
[1703434110.719861] [gra297:20506:0]          mpool.c:42   UCX  WARN  object 0xbb2d900 was not returned to mpool ucp_requests
[1703434110.719871] [gra297:20506:0]          mpool.c:42   UCX  WARN  object 0xbb2dac0 was not returned to mpool ucp_requests
[1703434110.719881] [gra297:20506:0]          mpool.c:42   UCX  WARN  object 0xbb2dc80 was not returned to mpool ucp_requests
[1703434110.719891] [gra297:20506:0]          mpool.c:42   UCX  WARN  object 0xbb2de40 was not returned to mpool ucp_requests
[1703434110.719900] [gra297:20506:0]          mpool.c:42   UCX  WARN  object 0xbb2e000 was not returned to mpool ucp_requests
[1703434110.723272] [gra297:20516:0]          mpool.c:42   UCX  WARN  object 0xc17ce00 was not returned to mpool ucp_requests
[1703434110.723307] [gra297:20516:0]          mpool.c:42   UCX  WARN  object 0xc17cfc0 was not returned to mpool ucp_requests
[1703434110.723320] [gra297:20516:0]          mpool.c:42   UCX  WARN  object 0xc17d180 was not returned to mpool ucp_requests
[1703434110.723331] [gra297:20516:0]          mpool.c:42   UCX  WARN  object 0xc17d340 was not returned to mpool ucp_requests
[1703434110.723342] [gra297:20516:0]          mpool.c:42   UCX  WARN  object 0xc17d500 was not returned to mpool ucp_requests
[1703434110.723352] [gra297:20516:0]          mpool.c:42   UCX  WARN  object 0xc17d6c0 was not returned to mpool ucp_requests
[1703434110.723361] [gra297:20516:0]          mpool.c:42   UCX  WARN  object 0xc17d880 was not returned to mpool ucp_requests
[1703434110.723371] [gra297:20516:0]          mpool.c:42   UCX  WARN  object 0xc17da40 was not returned to mpool ucp_requests
[1703434110.723380] [gra297:20516:0]          mpool.c:42   UCX  WARN  object 0xc17dc00 was not returned to mpool ucp_requests
[1703434110.723398] [gra297:20516:0]          mpool.c:42   UCX  WARN  object 0xc17ddc0 was not returned to mpool ucp_requests
[1703434110.723408] [gra297:20516:0]          mpool.c:42   UCX  WARN  object 0xc17df80 was not returned to mpool ucp_requests
[1703434110.723418] [gra297:20516:0]          mpool.c:42   UCX  WARN  object 0xc17e140 was not returned to mpool ucp_requests
[1703434110.723824] [gra297:20510:0]          mpool.c:42   UCX  WARN  object 0xbfb1b40 was not returned to mpool ucp_requests
[1703434110.723951] [gra297:20510:0]          mpool.c:42   UCX  WARN  object 0xbfb1d00 was not returned to mpool ucp_requests
[1703434110.724065] [gra297:20510:0]          mpool.c:42   UCX  WARN  object 0xbfb1ec0 was not returned to mpool ucp_requests
[1703434110.724176] [gra297:20510:0]          mpool.c:42   UCX  WARN  object 0xbfb2080 was not returned to mpool ucp_requests
[1703434110.724286] [gra297:20510:0]          mpool.c:42   UCX  WARN  object 0xbfb2240 was not returned to mpool ucp_requests
[1703434110.724395] [gra297:20510:0]          mpool.c:42   UCX  WARN  object 0xbfb2400 was not returned to mpool ucp_requests
[1703434110.724505] [gra297:20510:0]          mpool.c:42   UCX  WARN  object 0xbfb25c0 was not returned to mpool ucp_requests
[1703434110.724615] [gra297:20510:0]          mpool.c:42   UCX  WARN  object 0xbfb2780 was not returned to mpool ucp_requests
[1703434110.724737] [gra297:20510:0]          mpool.c:42   UCX  WARN  object 0xbfb2940 was not returned to mpool ucp_requests
[1703434110.724846] [gra297:20510:0]          mpool.c:42   UCX  WARN  object 0xbfb2b00 was not returned to mpool ucp_requests
[1703434110.724956] [gra297:20510:0]          mpool.c:42   UCX  WARN  object 0xbfb2cc0 was not returned to mpool ucp_requests
[1703434110.725067] [gra297:20510:0]          mpool.c:42   UCX  WARN  object 0xbfb2e80 was not returned to mpool ucp_requests
[1703434110.727150] [gra297:20513:0]          mpool.c:42   UCX  WARN  object 0xba45bc0 was not returned to mpool ucp_requests
[1703434110.727275] [gra297:20513:0]          mpool.c:42   UCX  WARN  object 0xba45d80 was not returned to mpool ucp_requests
[1703434110.727385] [gra297:20513:0]          mpool.c:42   UCX  WARN  object 0xba45f40 was not returned to mpool ucp_requests
[1703434110.727493] [gra297:20513:0]          mpool.c:42   UCX  WARN  object 0xba46100 was not returned to mpool ucp_requests
[1703434110.727600] [gra297:20513:0]          mpool.c:42   UCX  WARN  object 0xba462c0 was not returned to mpool ucp_requests
[1703434110.727721] [gra297:20513:0]          mpool.c:42   UCX  WARN  object 0xba46480 was not returned to mpool ucp_requests
[1703434110.727845] [gra297:20513:0]          mpool.c:42   UCX  WARN  object 0xba46640 was not returned to mpool ucp_requests
[1703434110.727953] [gra297:20513:0]          mpool.c:42   UCX  WARN  object 0xba46800 was not returned to mpool ucp_requests
[1703434110.728060] [gra297:20513:0]          mpool.c:42   UCX  WARN  object 0xba469c0 was not returned to mpool ucp_requests
[1703434110.728168] [gra297:20513:0]          mpool.c:42   UCX  WARN  object 0xba46b80 was not returned to mpool ucp_requests
[1703434110.728282] [gra297:20513:0]          mpool.c:42   UCX  WARN  object 0xba46d40 was not returned to mpool ucp_requests
[1703434110.728383] [gra297:20513:0]          mpool.c:42   UCX  WARN  object 0xba46f00 was not returned to mpool ucp_requests


           ************************************************************
           *        Program running with 8 parallel MPI-processes     *
           *              working on a common directory               *
           ************************************************************
-------------------------------------------------------------------------------
                                 ORCA SCF
-------------------------------------------------------------------------------

------------
SCF SETTINGS
------------
Hamiltonian:
 Density Functional     Method          .... DFT(GTOs)
 Exchange Functional    Exchange        .... WB97X-V
 Correlation Functional Correlation     .... WB97X-V
 Gradients option       PostSCFGGA      .... off
 Hybrid DFT is turned on
   Fraction HF Exchange ScalHFX         ....  0.167000
   Scaling of DF-GGA-X  ScalDFX         ....  0.000000
   Scaling of DF-GGA-C  ScalDFC         ....  1.000000
   Scaling of DF-LDA-C  ScalLDAC        ....  1.000000
   Perturbative correction              ....  0.000000
   Density functional embedding theory  .... OFF
 Long-range corrected/Screened/Range-Separated Hybrid DFT is turned on
   Amount of maximum screened exact exchange              ....  0.833000
   Range separation parameter mu (erf(mu*r12)/r12)        ....  0.300000
 RI-approximation to the Coulomb term is turned on
   Number of AuxJ basis functions       .... 1544
   RIJ-COSX (HFX calculated with COS-X)).... on


General Settings:
 Integral files         IntName         .... Fentanyl_OProt_21
 Hartree-Fock type      HFTyp           .... RHF
 Total Charge           Charge          ....    1
 Multiplicity           Mult            ....    1
 Number of Electrons    NEL             ....  182
 Basis Dimension        Dim             ....  949
 Nuclear Repulsion      ENuc            ....   2322.8020409200 Eh

Convergence Acceleration:
 DIIS                   CNVDIIS         .... on
   Start iteration      DIISMaxIt       ....    12
   Startup error        DIISStart       ....  0.200000
   # of expansion vecs  DIISMaxEq       ....     5
   Bias factor          DIISBfac        ....   1.050
   Max. coefficient     DIISMaxC        ....  10.000
 Trust-Rad. Augm. Hess. CNVTRAH         .... auto
   Auto Start mean grad. ratio tolernc. ....  1.125000
   Auto Start start iteration           ....    20
   Auto Start num. interpolation iter.  ....    10
   Max. Number of Micro iterations      ....    16
   Max. Number of Macro iterations      .... Maxiter - #DIIS iter
   Number of Davidson start vectors     ....     2
   Converg. threshold I  (grad. norm)   ....   1.000e-05
   Converg. threshold II (energy diff.) ....   1.000e-08
   Grad. Scal. Fac. for Micro threshold ....   0.100
   Minimum threshold for Micro iter.    ....   0.010
   NR start threshold (gradient norm)   ....   0.001
   Initial trust radius                 ....   0.400
   Minimum AH scaling param. (alpha)    ....   1.000
   Maximum AH scaling param. (alpha)    .... 1000.000
   Orbital update algorithm             .... Taylor
   White noise on init. David. guess    .... on
   Maximum white noise                  ....   0.010
   Quad. conv. algorithm                .... NR
 SOSCF                  CNVSOSCF        .... on
   Start iteration      SOSCFMaxIt      ....   150
   Startup grad/error   SOSCFStart      ....  0.003300
 Level Shifting         CNVShift        .... on
   Level shift para.    LevelShift      ....    0.2500
   Turn off err/grad.   ShiftErr        ....    0.0010
 Zerner damping         CNVZerner       .... off
 Static damping         CNVDamp         .... on
   Fraction old density DampFac         ....    0.7000
   Max. Damping (<1)    DampMax         ....    0.9800
   Min. Damping (>=0)   DampMin         ....    0.0000
   Turn off err/grad.   DampErr         ....    0.1000
 Fernandez-Rico         CNVRico         .... off

SCF Procedure:
 Maximum # iterations   MaxIter         ....   125
 SCF integral mode      SCFMode         .... Direct
   Integral package                     .... SHARK and LIBINT hybrid scheme
 Reset frequency        DirectResetFreq ....    20
 Integral Threshold     Thresh          ....  2.500e-11 Eh
 Primitive CutOff       TCut            ....  2.500e-12 Eh

Convergence Tolerance:
 Convergence Check Mode ConvCheckMode   .... Total+1el-Energy
 Convergence forced     ConvForced      .... 0
 Energy Change          TolE            ....  1.000e-08 Eh
 1-El. energy change                    ....  1.000e-05 Eh
 Orbital Gradient       TolG            ....  1.000e-05
 Orbital Rotation angle TolX            ....  1.000e-05
 DIIS Error             TolErr          ....  5.000e-07


Diagonalization of the overlap matrix:
Smallest eigenvalue                        ... 5.662e-06
Time for diagonalization                   ...    0.297 sec
Threshold for overlap eigenvalues          ... 1.000e-08
Number of eigenvalues below threshold      ... 0
Time for construction of square roots      ...    0.185 sec
Total time needed                          ...    0.492 sec

Time for model grid setup =    0.523 sec

------------------------------
INITIAL GUESS: MODEL POTENTIAL
------------------------------
Loading Hartree-Fock densities                     ... done
Calculating cut-offs                               ... done
Initializing the effective Hamiltonian             ... done
Setting up the integral package (SHARK)            ... done
Starting the Coulomb interaction                   ... done (   1.3 sec)
Reading the grid                                   ... done
Mapping shells                                     ... done
Starting the XC term evaluation                    ... done (   0.7 sec)
  promolecular density results
     # of electrons  =    182.977798063
     EX              =    -95.414291618
     EC              =     -7.511332083
     EX+EC           =   -102.925623701
Transforming the Hamiltonian                       ... done (   0.1 sec)
Diagonalizing the Hamiltonian                      ... done (   0.3 sec)
Back transforming the eigenvectors                 ... done (   0.1 sec)
Now organizing SCF variables                       ... done
                      ------------------
                      INITIAL GUESS DONE (   3.0 sec)
                      ------------------
-------------------
DFT GRID GENERATION
-------------------

General Integration Accuracy     IntAcc      ... 4.959
Radial Grid Type                 RadialGrid  ... OptM3 with GC (2021)
Angular Grid (max. ang.)         AngularGrid ... 6 (Lebedev-590)
Angular grid pruning method      GridPruning ... 4 (adaptive)
Weight generation scheme         WeightScheme... Becke
Basis function cutoff            BFCut       ... 1.0000e-11
Integration weight cutoff        WCut        ... 1.0000e-14
Angular grids for H and He will be reduced by one unit
Partially contracted basis set               ... off
Rotationally invariant grid construction     ... off

Total number of grid points                  ...   594199
Total number of batches                      ...     9308
Average number of points per batch           ...       63
Average number of grid points per atom       ...    11004
Time for grid setup =    8.545 sec

--------------------
COSX GRID GENERATION
--------------------

GRIDX 1
-------
General Integration Accuracy     IntAcc      ... 4.020
Radial Grid Type                 RadialGrid  ... OptM3 with GC (2021)
Angular Grid (max. ang.)         AngularGrid ... 2 (Lebedev-110)
Angular grid pruning method      GridPruning ... 4 (adaptive)
Weight generation scheme         WeightScheme... Becke
Basis function cutoff            BFCut       ... 1.0000e-11
Integration weight cutoff        WCut        ... 1.0000e-14
Angular grids for H and He will be reduced by one unit
Partially contracted basis set               ... on
Rotationally invariant grid construction     ... off

Total number of grid points                  ...    63953
Total number of batches                      ...     1025
Average number of points per batch           ...       62
Average number of grid points per atom       ...     1184
UseSFitting                                  ... on

GRIDX 2
-------
General Integration Accuracy     IntAcc      ... 4.338
Radial Grid Type                 RadialGrid  ... OptM3 with GC (2021)
Angular Grid (max. ang.)         AngularGrid ... 3 (Lebedev-194)
Angular grid pruning method      GridPruning ... 4 (adaptive)
Weight generation scheme         WeightScheme... Becke
Basis function cutoff            BFCut       ... 1.0000e-11
Integration weight cutoff        WCut        ... 1.0000e-14
Angular grids for H and He will be reduced by one unit
Partially contracted basis set               ... on
Rotationally invariant grid construction     ... off

Total number of grid points                  ...   138855
Total number of batches                      ...     2197
Average number of points per batch           ...       63
Average number of grid points per atom       ...     2571
UseSFitting                                  ... on

GRIDX 3
-------
General Integration Accuracy     IntAcc      ... 4.871
Radial Grid Type                 RadialGrid  ... OptM3 with GC (2021)
Angular Grid (max. ang.)         AngularGrid ... 4 (Lebedev-302)
Angular grid pruning method      GridPruning ... 4 (adaptive)
Weight generation scheme         WeightScheme... Becke
Basis function cutoff            BFCut       ... 1.0000e-11
Integration weight cutoff        WCut        ... 1.0000e-14
Angular grids for H and He will be reduced by one unit
[...]
 71:   1035.73   0.000091    0.46  0.000027  (-0.004840 -0.001676  0.001123)
 72:   1036.97   0.000280    1.41  0.000084  (-0.004748 -0.005104 -0.005965)
 73:   1045.69   0.000017    0.09  0.000005  (-0.001304 -0.001799 -0.000326)
 74:   1050.63   0.003428   17.32  0.001018  (-0.010992  0.016018 -0.025315)
 75:   1063.02   0.004588   23.19  0.001347  (-0.036238 -0.001506 -0.005602)
 76:   1071.87   0.000796    4.02  0.000232  (-0.009775 -0.008793  0.007667)
 77:   1076.04   0.008640   43.66  0.002506  (-0.047671  0.014522 -0.004727)
 78:   1113.50   0.006326   31.97  0.001773  ( 0.041661 -0.001319  0.005960)
 79:   1117.38   0.001269    6.41  0.000354  ( 0.011452  0.000756 -0.014926)
 80:   1118.12   0.000191    0.96  0.000053  (-0.007078  0.001143 -0.001354)
 81:   1119.84   0.000797    4.03  0.000222  ( 0.008289 -0.009258  0.008224)
 82:   1124.23   0.000820    4.14  0.000228  (-0.010424 -0.007173 -0.008216)
 83:   1151.65   0.000669    3.38  0.000181  ( 0.001841  0.010945  0.007621)
 84:   1177.43   0.000436    2.20  0.000116  (-0.002957 -0.002491  0.010034)
 85:   1185.64   0.000261    1.32  0.000069  (-0.001033  0.000339  0.008210)
 86:   1189.08   0.000203    1.03  0.000053  (-0.002397 -0.004411  0.005303)
 87:   1203.73   0.001985   10.03  0.000515  ( 0.016254  0.004693 -0.015110)
 88:   1208.09   0.000777    3.93  0.000201  ( 0.001110  0.004063 -0.013530)
 89:   1212.05   0.000851    4.30  0.000219  ( 0.014317  0.002655  0.002676)
 90:   1217.83   0.000861    4.35  0.000221  ( 0.013520  0.005695  0.002336)
 91:   1235.55   0.010181   51.45  0.002572  ( 0.017268  0.042597  0.021421)
 92:   1241.30   0.000034    0.17  0.000009  ( 0.002182 -0.001594  0.001154)
 93:   1262.69   0.000525    2.66  0.000130  (-0.003700 -0.005833  0.009064)
 94:   1273.51   0.004363   22.05  0.001069  ( 0.008648 -0.026339 -0.017336)
 95:   1293.34   0.008429   42.60  0.002034  (-0.009699  0.043913  0.003366)
 96:   1303.54   0.000462    2.33  0.000111  ( 0.006302  0.000794 -0.008376)
 97:   1309.00   0.000432    2.18  0.000103  ( 0.006292 -0.004105 -0.006820)
 98:   1314.31   0.000366    1.85  0.000087  ( 0.008512  0.000910 -0.003682)
 99:   1315.59   0.000241    1.22  0.000057  ( 0.003919  0.001162 -0.006352)
100:   1343.12   0.000064    0.33  0.000015  ( 0.002153  0.000322  0.003196)
101:   1357.81   0.000350    1.77  0.000080  (-0.008201  0.000301  0.003616)
102:   1361.47   0.001297    6.55  0.000297  (-0.011902  0.009193 -0.008433)
103:   1363.16   0.007706   38.94  0.001764  ( 0.039015 -0.015467  0.001615)
104:   1372.64   0.000200    1.01  0.000045  ( 0.002365  0.006288 -0.000482)
105:   1384.07   0.002512   12.69  0.000566  (-0.001836  0.000108  0.023725)
106:   1391.69   0.000597    3.02  0.000134  (-0.002687 -0.002266 -0.011020)
107:   1398.93   0.001383    6.99  0.000309  ( 0.011042 -0.001172 -0.013613)
108:   1408.54   0.005549   28.04  0.001229  (-0.033136 -0.011172 -0.002550)
109:   1419.21   0.003297   16.66  0.000725  ( 0.006136  0.004730 -0.025785)
110:   1426.47   0.002597   13.12  0.000568  ( 0.003025 -0.021416 -0.010018)
111:   1429.20   0.010804   54.60  0.002359  (-0.006626 -0.040417 -0.026106)
112:   1441.30   0.006898   34.86  0.001494  (-0.038054  0.006006 -0.003060)
113:   1448.87   0.018478   93.38  0.003980  ( 0.040188  0.044138  0.020415)
114:   1453.00   0.006622   33.46  0.001422  ( 0.012409 -0.033045 -0.013274)
115:   1483.25   0.007084   35.80  0.001490  ( 0.000265 -0.035301 -0.015625)
116:   1485.35   0.005835   29.49  0.001226  ( 0.003562  0.031340  0.015200)
117:   1489.19   0.001575    7.96  0.000330  ( 0.011315  0.010807  0.009230)
118:   1490.80   0.000230    1.16  0.000048  (-0.006512  0.001955  0.001417)
119:   1496.42   0.001516    7.66  0.000316  (-0.007209  0.003962  0.015765)
120:   1505.84   0.004520   22.84  0.000937  (-0.018790  0.023775 -0.004283)
121:   1508.21   0.002591   13.09  0.000536  (-0.015263  0.016141  0.006519)
122:   1510.44   0.002158   10.90  0.000446  (-0.012635  0.000947  0.016890)
123:   1511.37   0.000445    2.25  0.000092  ( 0.003190  0.008939  0.001331)
124:   1517.52   0.002876   14.53  0.000591  ( 0.013432  0.005744 -0.019440)
125:   1519.50   0.005113   25.84  0.001050  (-0.016980  0.027601  0.000072)
126:   1553.70   0.005880   29.72  0.001181  (-0.000612  0.030653  0.015527)
127:   1555.66   0.002721   13.75  0.000546  ( 0.004347 -0.016719  0.015728)
128:   1669.96   0.000226    1.14  0.000042  (-0.004065  0.002534  0.004400)
129:   1680.89   0.000853    4.31  0.000158  ( 0.001404  0.002167 -0.012314)
130:   1683.09   0.003980   20.11  0.000738  (-0.020731 -0.009876 -0.014515)
131:   1693.93   0.001069    5.40  0.000197  (-0.003147  0.009007 -0.010294)
132:   1732.74   0.069451  350.98  0.012508  (-0.093297 -0.022819 -0.057296)
133:   2988.53   0.011055   55.87  0.001154  (-0.011735 -0.026957 -0.017029)
134:   2993.75   0.015050   76.05  0.001569  ( 0.018222  0.031611 -0.015410)
135:   3052.81   0.002271   11.48  0.000232  ( 0.007588 -0.012540 -0.004157)
136:   3059.69   0.001310    6.62  0.000134  (-0.001204 -0.010287 -0.005132)
137:   3063.88   0.010340   52.26  0.001053  (-0.023211  0.012645 -0.018829)
138:   3080.27   0.003130   15.82  0.000317  (-0.002528  0.008695  0.015331)
139:   3081.74   0.002657   13.43  0.000269  ( 0.014162 -0.006481  0.005147)
140:   3095.31   0.002476   12.51  0.000250  ( 0.015260 -0.002889 -0.002899)
141:   3099.02   0.001380    6.97  0.000139  ( 0.010205 -0.000516  0.005880)
142:   3104.79   0.000380    1.92  0.000038  (-0.000537 -0.005828  0.001985)
143:   3116.84   0.004215   21.30  0.000422  (-0.012451  0.000540  0.016330)
144:   3122.32   0.001154    5.83  0.000115  (-0.005888 -0.003748  0.008164)
145:   3128.65   0.003931   19.87  0.000392  (-0.003843  0.001082 -0.019395)
146:   3136.20   0.002233   11.29  0.000222  (-0.010081 -0.004428  0.010050)
147:   3141.59   0.003105   15.69  0.000308  ( 0.007975  0.013936  0.007112)
148:   3142.99   0.000230    1.16  0.000023  (-0.002386 -0.002140  0.003549)
149:   3148.24   0.002678   13.53  0.000265  ( 0.012570  0.004035 -0.009547)
150:   3166.94   0.000167    0.85  0.000016  (-0.002018  0.003500  0.000407)
151:   3182.48   0.001186    5.99  0.000116  (-0.002210 -0.002719  0.010197)
152:   3195.95   0.000612    3.09  0.000060  ( 0.004619 -0.006068 -0.001248)
153:   3203.31   0.001408    7.11  0.000137  (-0.004891 -0.000407  0.010632)
154:   3208.10   0.000198    1.00  0.000019  ( 0.001096  0.003683  0.002124)
155:   3212.59   0.004340   21.93  0.000422  (-0.012244  0.014735  0.007386)
156:   3215.45   0.000050    0.25  0.000005  (-0.000695  0.002073  0.000253)
157:   3222.97   0.000456    2.31  0.000044  ( 0.003535  0.005394  0.001609)
158:   3224.48   0.001246    6.30  0.000121  (-0.000670  0.007206 -0.008262)
159:   3230.26   0.000213    1.08  0.000021  ( 0.001047  0.000502 -0.004383)
160:   3237.34   0.000121    0.61  0.000012  ( 0.000206 -0.003399 -0.000162)
161:   3785.96   0.055606  281.01  0.004583  (-0.054132 -0.018010 -0.036452)

* The epsilon (eps) is given for a Dirac delta lineshape.
** The dipole moment derivative (T) already includes vibrational overlap.

The first frequency considered to be a vibration is 6
The total number of vibrations considered is 156


--------------------------
THERMOCHEMISTRY AT 298.15K
--------------------------

Temperature         ... 298.15 K
Pressure            ... 1.00 atm
Total Mass          ... 337.49 AMU

Throughout the following assumptions are being made:
  (1) The electronic state is orbitally nondegenerate
  (2) There are no thermally accessible electronically excited states
  (3) Hindered rotations indicated by low frequency modes are not
      treated as such but are treated as vibrations and this may
      cause some error
  (4) All equations used are the standard statistical mechanics
      equations for an ideal gas
  (5) All vibrations are strictly harmonic

freq.      20.39  E(vib)   ...       0.56 
freq.      29.96  E(vib)   ...       0.55 
freq.      39.02  E(vib)   ...       0.54 
freq.      42.22  E(vib)   ...       0.53 
freq.      55.93  E(vib)   ...       0.52 
freq.      69.32  E(vib)   ...       0.50 
freq.      77.96  E(vib)   ...       0.49 
freq.      89.22  E(vib)   ...       0.47 
freq.      93.29  E(vib)   ...       0.47 
freq.     103.36  E(vib)   ...       0.46 
freq.     114.33  E(vib)   ...       0.44 
freq.     162.10  E(vib)   ...       0.39 
freq.     188.70  E(vib)   ...       0.36 
freq.     215.83  E(vib)   ...       0.34 
freq.     242.62  E(vib)   ...       0.31 
freq.     249.53  E(vib)   ...       0.31 
freq.     263.37  E(vib)   ...       0.29 
freq.     271.20  E(vib)   ...       0.29 
freq.     296.52  E(vib)   ...       0.27 
freq.     318.96  E(vib)   ...       0.25 
freq.     320.19  E(vib)   ...       0.25 
freq.     361.11  E(vib)   ...       0.22 
freq.     408.52  E(vib)   ...       0.19 
freq.     421.81  E(vib)   ...       0.18 
freq.     425.57  E(vib)   ...       0.18 
freq.     428.74  E(vib)   ...       0.18 
freq.     447.99  E(vib)   ...       0.17 
freq.     457.30  E(vib)   ...       0.16 
freq.     470.04  E(vib)   ...       0.16 
freq.     486.85  E(vib)   ...       0.15 
freq.     490.91  E(vib)   ...       0.14 
freq.     493.66  E(vib)   ...       0.14 
freq.     537.01  E(vib)   ...       0.12 
freq.     549.57  E(vib)   ...       0.12 
freq.     576.01  E(vib)   ...       0.11 
freq.     621.32  E(vib)   ...       0.09 
freq.     628.88  E(vib)   ...       0.09 
freq.     638.92  E(vib)   ...       0.09 
freq.     649.28  E(vib)   ...       0.08 
freq.     677.40  E(vib)   ...       0.08 
freq.     725.89  E(vib)   ...       0.06 
freq.     729.11  E(vib)   ...       0.06 
freq.     742.27  E(vib)   ...       0.06 
freq.     759.94  E(vib)   ...       0.06 
freq.     776.95  E(vib)   ...       0.05 
freq.     785.44  E(vib)   ...       0.05 
freq.     809.20  E(vib)   ...       0.05 
freq.     813.40  E(vib)   ...       0.05 
freq.     835.50  E(vib)   ...       0.04 
freq.     854.41  E(vib)   ...       0.04 
freq.     879.28  E(vib)   ...       0.04 
freq.     886.26  E(vib)   ...       0.04 
freq.     909.98  E(vib)   ...       0.03 
freq.     932.65  E(vib)   ...       0.03 
freq.     939.14  E(vib)   ...       0.03 
freq.     965.71  E(vib)   ...       0.03 
freq.     971.26  E(vib)   ...       0.03 
freq.     980.78  E(vib)   ...       0.02 
freq.     998.87  E(vib)   ...       0.02 
freq.    1007.48  E(vib)   ...       0.02 
freq.    1016.51  E(vib)   ...       0.02 
freq.    1020.40  E(vib)   ...       0.02 
freq.    1021.49  E(vib)   ...       0.02 
freq.    1026.36  E(vib)   ...       0.02 
freq.    1031.30  E(vib)   ...       0.02 
freq.    1035.73  E(vib)   ...       0.02 
freq.    1036.97  E(vib)   ...       0.02 
freq.    1045.69  E(vib)   ...       0.02 
freq.    1050.63  E(vib)   ...       0.02 
freq.    1063.02  E(vib)   ...       0.02 
freq.    1071.87  E(vib)   ...       0.02 
freq.    1076.04  E(vib)   ...       0.02 
freq.    1113.50  E(vib)   ...       0.01 
freq.    1117.38  E(vib)   ...       0.01 
freq.    1118.12  E(vib)   ...       0.01 
freq.    1119.84  E(vib)   ...       0.01 
freq.    1124.23  E(vib)   ...       0.01 
freq.    1151.65  E(vib)   ...       0.01 
freq.    1177.43  E(vib)   ...       0.01 
freq.    1185.64  E(vib)   ...       0.01 
freq.    1189.08  E(vib)   ...       0.01 
freq.    1203.73  E(vib)   ...       0.01 
freq.    1208.09  E(vib)   ...       0.01 
freq.    1212.05  E(vib)   ...       0.01 
freq.    1217.83  E(vib)   ...       0.01 
freq.    1235.55  E(vib)   ...       0.01 
freq.    1241.30  E(vib)   ...       0.01 
freq.    1262.69  E(vib)   ...       0.01 
freq.    1273.51  E(vib)   ...       0.01 
freq.    1293.34  E(vib)   ...       0.01 
freq.    1303.54  E(vib)   ...       0.01 
freq.    1309.00  E(vib)   ...       0.01 
freq.    1314.31  E(vib)   ...       0.01 
freq.    1315.59  E(vib)   ...       0.01 
freq.    1343.12  E(vib)   ...       0.01 
freq.    1357.81  E(vib)   ...       0.01 
freq.    1361.47  E(vib)   ...       0.01 
freq.    1363.16  E(vib)   ...       0.01 
freq.    1372.64  E(vib)   ...       0.01 
freq.    1384.07  E(vib)   ...       0.00 
freq.    1391.69  E(vib)   ...       0.00 
freq.    1398.93  E(vib)   ...       0.00 
freq.    1408.54  E(vib)   ...       0.00 
freq.    1419.21  E(vib)   ...       0.00 
freq.    1426.47  E(vib)   ...       0.00 
freq.    1429.20  E(vib)   ...       0.00 
freq.    1441.30  E(vib)   ...       0.00 
freq.    1448.87  E(vib)   ...       0.00 
freq.    1453.00  E(vib)   ...       0.00 
freq.    1483.25  E(vib)   ...       0.00 
freq.    1485.35  E(vib)   ...       0.00 
freq.    1489.19  E(vib)   ...       0.00 
freq.    1490.80  E(vib)   ...       0.00 
freq.    1496.42  E(vib)   ...       0.00 
freq.    1505.84  E(vib)   ...       0.00 
freq.    1508.21  E(vib)   ...       0.00 
freq.    1510.44  E(vib)   ...       0.00 
freq.    1511.37  E(vib)   ...       0.00 
freq.    1517.52  E(vib)   ...       0.00 
freq.    1519.50  E(vib)   ...       0.00 
freq.    1553.70  E(vib)   ...       0.00 
freq.    1555.66  E(vib)   ...       0.00 
freq.    1669.96  E(vib)   ...       0.00 
freq.    1680.89  E(vib)   ...       0.00 
freq.    1683.09  E(vib)   ...       0.00 
freq.    1693.93  E(vib)   ...       0.00 
freq.    1732.74  E(vib)   ...       0.00 
freq.    2988.53  E(vib)   ...       0.00 
freq.    2993.75  E(vib)   ...       0.00 
freq.    3052.81  E(vib)   ...       0.00 
freq.    3059.69  E(vib)   ...       0.00 
freq.    3063.88  E(vib)   ...       0.00 
freq.    3080.27  E(vib)   ...       0.00 
freq.    3081.74  E(vib)   ...       0.00 
freq.    3095.31  E(vib)   ...       0.00 
freq.    3099.02  E(vib)   ...       0.00 
freq.    3104.79  E(vib)   ...       0.00 
freq.    3116.84  E(vib)   ...       0.00 
freq.    3122.32  E(vib)   ...       0.00 
freq.    3128.65  E(vib)   ...       0.00 
freq.    3136.20  E(vib)   ...       0.00 
freq.    3141.59  E(vib)   ...       0.00 
freq.    3142.99  E(vib)   ...       0.00 
freq.    3148.24  E(vib)   ...       0.00 
freq.    3166.94  E(vib)   ...       0.00 
freq.    3182.48  E(vib)   ...       0.00 
freq.    3195.95  E(vib)   ...       0.00 
freq.    3203.31  E(vib)   ...       0.00 
freq.    3208.10  E(vib)   ...       0.00 
freq.    3212.59  E(vib)   ...       0.00 
freq.    3215.45  E(vib)   ...       0.00 
freq.    3222.97  E(vib)   ...       0.00 
freq.    3224.48  E(vib)   ...       0.00 
freq.    3230.26  E(vib)   ...       0.00 
freq.    3237.34  E(vib)   ...       0.00 
freq.    3785.96  E(vib)   ...       0.00 

------------
INNER ENERGY
------------

The inner energy is: U= E(el) + E(ZPE) + E(vib) + E(rot) + E(trans)
    E(el)   - is the total energy from the electronic structure calculation
              = E(kin-el) + E(nuc-el) + E(el-el) + E(nuc-nuc)
    E(ZPE)  - the the zero temperature vibrational energy from the frequency calculation
    E(vib)  - the the finite temperature correction to E(ZPE) due to population
              of excited vibrational states
    E(rot)  - is the rotational thermal energy
    E(trans)- is the translational thermal energy

Summary of contributions to the inner energy U:
Electronic energy                ...  -1041.20669585 Eh
Zero point energy                ...      0.47898853 Eh     300.57 kcal/mol
Thermal vibrational correction   ...      0.02013292 Eh      12.63 kcal/mol
Thermal rotational correction    ...      0.00141627 Eh       0.89 kcal/mol
Thermal translational correction ...      0.00141627 Eh       0.89 kcal/mol
-----------------------------------------------------------------------
Total thermal energy                  -1040.70474186 Eh


Summary of corrections to the electronic energy:
(perhaps to be used in another calculation)
Total thermal correction                  0.02296546 Eh      14.41 kcal/mol
Non-thermal (ZPE) correction              0.47898853 Eh     300.57 kcal/mol
-----------------------------------------------------------------------
Total correction                          0.50195399 Eh     314.98 kcal/mol


--------
ENTHALPY
--------

The enthalpy is H = U + kB*T
                kB is Boltzmann's constant
Total free energy                 ...  -1040.70474186 Eh 
Thermal Enthalpy correction       ...      0.00094421 Eh       0.59 kcal/mol
-----------------------------------------------------------------------
Total Enthalpy                    ...  -1040.70379765 Eh


Note: Only C1 symmetry has been detected, increase convergence thresholds 
      if your molecule has a higher symmetry. Symmetry factor of 1.0 is   
      used for the rotational entropy correction. 
 

Note: Rotational entropy computed according to Herzberg 
Infrared and Raman Spectra, Chapter V,1, Van Nostrand Reinhold, 1945 
Point Group:  C1, Symmetry Number:   1  
Rotational constants in cm-1:     0.009851     0.005758     0.005057 

Vibrational entropy computed according to the QRRHO of S. Grimme
Chem.Eur.J. 2012 18 9955


-------
ENTROPY
-------

The entropy contributions are T*S = T*(S(el)+S(vib)+S(rot)+S(trans))
     S(el)   - electronic entropy
     S(vib)  - vibrational entropy
     S(rot)  - rotational entropy
     S(trans)- translational entropy
The entropies will be listed as multiplied by the temperature to get
units of energy

Electronic entropy                ...      0.00000000 Eh      0.00 kcal/mol
Vibrational entropy               ...      0.03554934 Eh     22.31 kcal/mol
Rotational entropy                ...      0.01662250 Eh     10.43 kcal/mol
Translational entropy             ...      0.02059393 Eh     12.92 kcal/mol
-----------------------------------------------------------------------
Final entropy term                ...      0.07276577 Eh     45.66 kcal/mol

In case the symmetry of your molecule has not been determined correctly
or in case you have a reason to use a different symmetry number we print 
out the resulting rotational entropy values for sn=1,12 :
 --------------------------------------------------------
|  sn= 1 | S(rot)=       0.01662250 Eh     10.43 kcal/mol|
|  sn= 2 | S(rot)=       0.01596805 Eh     10.02 kcal/mol|
|  sn= 3 | S(rot)=       0.01558522 Eh      9.78 kcal/mol|
|  sn= 4 | S(rot)=       0.01531359 Eh      9.61 kcal/mol|
|  sn= 5 | S(rot)=       0.01510290 Eh      9.48 kcal/mol|
|  sn= 6 | S(rot)=       0.01493076 Eh      9.37 kcal/mol|
|  sn= 7 | S(rot)=       0.01478521 Eh      9.28 kcal/mol|
|  sn= 8 | S(rot)=       0.01465913 Eh      9.20 kcal/mol|
|  sn= 9 | S(rot)=       0.01454793 Eh      9.13 kcal/mol|
|  sn=10 | S(rot)=       0.01444845 Eh      9.07 kcal/mol|
|  sn=11 | S(rot)=       0.01435846 Eh      9.01 kcal/mol|
|  sn=12 | S(rot)=       0.01427630 Eh      8.96 kcal/mol|
 --------------------------------------------------------


-------------------
GIBBS FREE ENERGY
-------------------

The Gibbs free energy is G = H - T*S

Total enthalpy                    ...  -1040.70379765 Eh 
Total entropy correction          ...     -0.07276577 Eh    -45.66 kcal/mol
-----------------------------------------------------------------------
Final Gibbs free energy         ...  -1040.77656343 Eh

For completeness - the Gibbs free energy minus the electronic energy
G-E(el)                           ...      0.43013242 Eh    269.91 kcal/mol


Timings for individual modules:

Sum of individual times         ...    33219.436 sec (= 553.657 min)
GTO integral calculation        ...       43.730 sec (=   0.729 min)   0.1 %
SCF iterations                  ...    12980.667 sec (= 216.344 min)  39.1 %
SCF Gradient evaluation         ...     3830.499 sec (=  63.842 min)  11.5 %
Geometry relaxation             ...        4.687 sec (=   0.078 min)   0.0 %
Analytical frequency calculation...    13638.615 sec (= 227.310 min)  41.1 %
CHELPG charge generation        ...     2721.239 sec (=  45.354 min)   8.2 %
                             ****ORCA TERMINATED NORMALLY****
TOTAL RUN TIME: 0 days 9 hours 13 minutes 59 seconds 435 msec
