
Lmod is automatically replacing "intel/2020.1.217" with "gcc/10.3.0".


The following have been reloaded with a version change:
  1) gcccore/.9.3.0 => gcccore/.10.3.0        3) openmpi/4.0.3 => openmpi/4.1.1
  2) libfabric/1.10.1 => libfabric/1.12.1     4) ucx/1.8.0 => ucx/1.9.0

To execute ORCA, run: 
   ${EBROOTORCA}/orca orca.inp > orca.out

                                 *****************
                                 * O   R   C   A *
                                 *****************

                                            #,                                       
                                            ###                                      
                                            ####                                     
                                            #####                                    
                                            ######                                   
                                           ########,                                 
                                     ,,################,,,,,                         
                               ,,#################################,,                 
                          ,,##########################################,,             
                       ,#########################################, ''#####,          
                    ,#############################################,,   '####,        
                  ,##################################################,,,,####,       
                ,###########''''           ''''###############################       
              ,#####''   ,,,,##########,,,,          '''####'''          '####       
            ,##' ,,,,###########################,,,                        '##       
           ' ,,###''''                  '''############,,,                           
         ,,##''                                '''############,,,,        ,,,,,,###''
      ,#''                                            '''#######################'''  
     '                                                          ''''####''''         
             ,#######,   #######,   ,#######,      ##                                
            ,#'     '#,  ##    ##  ,#'     '#,    #''#        ######   ,####,        
            ##       ##  ##   ,#'  ##            #'  '#       #        #'  '#        
            ##       ##  #######   ##           ,######,      #####,   #    #        
            '#,     ,#'  ##    ##  '#,     ,#' ,#      #,         ##   #,  ,#        
             '#######'   ##     ##  '#######'  #'      '#     #####' # '####'        



                  #######################################################
                  #                        -***-                        #
                  #          Department of theory and spectroscopy      #
                  #    Directorship and core code : Frank Neese         #
                  #        Max Planck Institute fuer Kohlenforschung    #
                  #                Kaiser Wilhelm Platz 1               #
                  #                 D-45470 Muelheim/Ruhr               #
                  #                      Germany                        #
                  #                                                     #
                  #                  All rights reserved                #
                  #                        -***-                        #
                  #######################################################


                         Program Version 5.0.4 -  RELEASE  -


 With contributions from (in alphabetic order):
   Daniel Aravena         : Magnetic Suceptibility
   Michael Atanasov       : Ab Initio Ligand Field Theory (pilot matlab implementation)
   Alexander A. Auer      : GIAO ZORA, VPT2 properties, NMR spectrum
   Ute Becker             : Parallelization
   Giovanni Bistoni       : ED, misc. LED, open-shell LED, HFLD
   Martin Brehm           : Molecular dynamics
   Dmytro Bykov           : SCF Hessian
   Vijay G. Chilkuri      : MRCI spin determinant printing, contributions to CSF-ICE
   Dipayan Datta          : RHF DLPNO-CCSD density
   Achintya Kumar Dutta   : EOM-CC, STEOM-CC
   Dmitry Ganyushin       : Spin-Orbit,Spin-Spin,Magnetic field MRCI
   Miquel Garcia          : C-PCM and meta-GGA Hessian, CC/C-PCM, Gaussian charge scheme
   Yang Guo               : DLPNO-NEVPT2, F12-NEVPT2, CIM, IAO-localization
   Andreas Hansen         : Spin unrestricted coupled pair/coupled cluster methods
   Benjamin Helmich-Paris : MC-RPA, TRAH-SCF, COSX integrals
   Lee Huntington         : MR-EOM, pCC
   Robert Izsak           : Overlap fitted RIJCOSX, COSX-SCS-MP3, EOM
   Marcus Kettner         : VPT2
   Christian Kollmar      : KDIIS, OOCD, Brueckner-CCSD(T), CCSD density, CASPT2, CASPT2-K
   Simone Kossmann        : Meta GGA functionals, TD-DFT gradient, OOMP2, MP2 Hessian
   Martin Krupicka        : Initial AUTO-CI
   Lucas Lang             : DCDCAS
   Marvin Lechner         : AUTO-CI (C++ implementation), FIC-MRCC
   Dagmar Lenk            : GEPOL surface, SMD
   Dimitrios Liakos       : Extrapolation schemes; Compound Job, initial MDCI parallelization
   Dimitrios Manganas     : Further ROCIS development; embedding schemes
   Dimitrios Pantazis     : SARC Basis sets
   Anastasios Papadopoulos: AUTO-CI, single reference methods and gradients
   Taras Petrenko         : DFT Hessian,TD-DFT gradient, ASA, ECA, R-Raman, ABS, FL, XAS/XES, NRVS
   Peter Pinski           : DLPNO-MP2, DLPNO-MP2 Gradient
   Christoph Reimann      : Effective Core Potentials
   Marius Retegan         : Local ZFS, SOC
   Christoph Riplinger    : Optimizer, TS searches, QM/MM, DLPNO-CCSD(T), (RO)-DLPNO pert. Triples
   Tobias Risthaus        : Range-separated hybrids, TD-DFT gradient, RPA, STAB
   Michael Roemelt        : Original ROCIS implementation
   Masaaki Saitow         : Open-shell DLPNO-CCSD energy and density
   Barbara Sandhoefer     : DKH picture change effects
   Avijit Sen             : IP-ROCIS
   Kantharuban Sivalingam : CASSCF convergence, NEVPT2, FIC-MRCI
   Bernardo de Souza      : ESD, SOC TD-DFT
   Georgi Stoychev        : AutoAux, RI-MP2 NMR, DLPNO-MP2 response
   Willem Van den Heuvel  : Paramagnetic NMR
   Boris Wezisla          : Elementary symmetry handling
   Frank Wennmohs         : Technical directorship


 We gratefully acknowledge several colleagues who have allowed us to
 interface, adapt or use parts of their codes:
   Stefan Grimme, W. Hujo, H. Kruse, P. Pracht,  : VdW corrections, initial TS optimization,
                  C. Bannwarth, S. Ehlert          DFT functionals, gCP, sTDA/sTD-DF
   Ed Valeev, F. Pavosevic, A. Kumar             : LibInt (2-el integral package), F12 methods
   Garnet Chan, S. Sharma, J. Yang, R. Olivares  : DMRG
   Ulf Ekstrom                                   : XCFun DFT Library
   Mihaly Kallay                                 : mrcc  (arbitrary order and MRCC methods)
   Jiri Pittner, Ondrej Demel                    : Mk-CCSD
   Frank Weinhold                                : gennbo (NPA and NBO analysis)
   Christopher J. Cramer and Donald G. Truhlar   : smd solvation model
   Lars Goerigk                                  : TD-DFT with DH, B97 family of functionals
   V. Asgeirsson, H. Jonsson                     : NEB implementation
   FAccTs GmbH                                   : IRC, NEB, NEB-TS, DLPNO-Multilevel, CI-OPT
                                                   MM, QMMM, 2- and 3-layer-ONIOM, Crystal-QMMM,
                                                   LR-CPCM, SF, NACMEs, symmetry and pop. for TD-DFT,
                                                   nearIR, NL-DFT gradient (VV10), updates on ESD,
                                                   ML-optimized integration grids
   S Lehtola, MJT Oliveira, MAL Marques          : LibXC Library
   Liviu Ungur et al                             : ANISO software


 Your calculation uses the libint2 library for the computation of 2-el integrals
 For citations please refer to: http://libint.valeyev.net

 Your ORCA version has been built with support for libXC version: 5.1.0
 For citations please refer to: https://tddft.org/programs/libxc/

 This ORCA versions uses:
   CBLAS   interface :  Fast vector & matrix operations
   LAPACKE interface :  Fast linear algebra routines
   SCALAPACK package :  Parallel linear algebra routines
   Shared memory     :  Shared parallel matrices
   BLAS/LAPACK       :  OpenBLAS 0.3.15  USE64BITINT DYNAMIC_ARCH NO_AFFINITY Haswell SINGLE_THREADED
        Core in use  :  Haswell
   Copyright (c) 2011-2014, The OpenBLAS Project


Your calculation utilizes the atom-pairwise dispersion correction
with the Becke-Johnson damping scheme (D3BJ)
Cite in your paper:
S.Grimme, S.Ehrlich, L.Goerigk, J Comput Chem, (2011), 32, 1456–1465 
S.Grimme, J.Antony, S.Ehrlich and H.Krieg, J.Chem.Phys., 132, (2010), 154104 
   

================================================================================

----- Orbital basis set information -----
Your calculation utilizes the basis: def2-TZVP
   F. Weigend and R. Ahlrichs, Phys. Chem. Chem. Phys. 7, 3297 (2005).

----- AuxJ basis set information -----
Your calculation utilizes the auxiliary basis: def2/J
   F. Weigend, Phys. Chem. Chem. Phys. 8, 1057 (2006).

================================================================================
                                        WARNINGS
                       Please study these warnings very carefully!
================================================================================


WARNING: Geometry Optimization
  ===> : Switching off AutoStart
         For restart on a previous wavefunction, please use MOREAD

INFO   : the flag for use of the SHARK integral package has been found!

================================================================================
                                       INPUT FILE
================================================================================
NAME = Fentanyl_OProt_47.inp
|  1> ! wB97X-D3BJ TightOpt Freq def2-TZVP def2/J RIJCOSX TightSCF defgrid3 CHELPG
|  2> %maxcore 3400
|  3> 
|  4> %pal nprocs 8 
|  5> end
|  6> 
|  7> %chelpg
|  8> grid 0.1
|  9> rmax 3.0
| 10> end
| 11> 
| 12> *xyz 1 1
| 13> O         3.2450016774     2.6926489094     0.0684264583
| 14> N        -1.3327840195    -0.1926326329     0.0392101551
| 15> N         2.8240798320     0.4927713485    -0.0517684039
| 16> C         1.3726414247     0.7244292768     0.0134475286
| 17> C         0.6760397052     0.2148380916    -1.2472555056
| 18> C         0.7569337015     0.0485529386     1.2373366337
| 19> C        -0.8236571925     0.4963634566    -1.1241145921
| 20> C        -0.7469238786     0.3358911960     1.2495115871
| 21> C        -2.7706929381    -0.3650726860     0.0735659330
| 22> C        -3.6086528425     0.9235234337     0.1903659029
| 23> C         3.2785061212    -0.8679505381    -0.1522180074
| 24> C         3.6851166114     1.4638152480    -0.0254075305
| 25> C        -5.0687518600     0.5733879643     0.1960962587
| 26> C         5.1538582636     1.1867345684    -0.1018650018
| 27> C         3.5310852355    -1.5940487909     1.0035617396
| 28> C         3.4529086378    -1.4440093995    -1.4029997802
| 29> C         6.0235028897     2.4400637574    -0.0506478732
| 30> C        -5.7246119546     0.2983668211     1.3888974625
| 31> C        -5.7749409655     0.4745982061    -0.9956625729
| 32> C         3.9455852182    -2.9113693906     0.9018963825
| 33> C         3.8681279456    -2.7620115964    -1.4924145900
| 34> C         4.1113165628    -3.4957245185    -0.3429782287
| 35> C        -7.0605266646    -0.0610702967     1.3917631546
| 36> C        -7.1108593488     0.1153687105    -0.9954909035
| 37> C        -7.7568747138    -0.1537281667     0.1989207762
| 38> H         1.2280631993     1.8055683547     0.0906629103
| 39> H         0.8186388083    -0.8616562434    -1.3404963511
| 40> H         1.0737411613     0.7115155964    -2.1336746933
| 41> H         1.2120955259     0.4257446372     2.1544798446
| 42> H         0.9018288832    -1.0300139989     1.1780902822
| 43> H        -0.9822370868     1.5884519721    -1.0754729775
| 44> H        -1.3350174576     0.1146415517    -2.0088679071
| 45> H        -1.2013014683    -0.1645140635     2.1057461006
| 46> H        -0.9050442264     1.4236119733     1.3589317100
| 47> H        -3.0579083807    -0.8934779711    -0.8392786799
| 48> H        -3.0017753912    -1.0169062014     0.9201220672
| 49> H        -3.3881016273     1.5780754831    -0.6551141258
| 50> H        -3.3480633743     1.4445100187     1.1136804724
| 51> H         5.3513097951     0.6337153166    -1.0247721355
| 52> H         5.4207336652     0.5134124674     0.7177546165
| 53> H         3.4010732391    -1.1355153992     1.9716500359
| 54> H         3.2619786222    -0.8697742133    -2.2964271699
| 55> H         5.8989320118     2.9800124518     0.8871635539
| 56> H         5.8278150051     3.1025382963    -0.8929641905
| 57> H         7.0676852846     2.1466216229    -0.1128470310
| 58> H        -5.1862935388     0.3733640719     2.3235834797
| 59> H        -5.2759320416     0.6877934364    -1.9308900220
| 60> H         4.1355561983    -3.4795794152     1.7985056079
| 61> H         3.9979411160    -3.2138191586    -2.4629116947
| 62> H         4.4302868681    -4.5229911878    -0.4173508106
| 63> H        -7.5595914858    -0.2674245983     2.3268953182
| 64> H        -7.6491648813     0.0470562784    -1.9291171325
| 65> H        -8.7997372564    -0.4321257517     0.2002791357
| 66> H         3.9693914798     3.3432613410     0.0821294848
| 67> *
| 68> 
| 69> 
| 70>                          ****END OF INPUT****
================================================================================

                       *****************************
                       * Geometry Optimization Run *
                       *****************************

Geometry optimization settings:
Update method            Update   .... BFGS
Choice of coordinates    CoordSys .... Z-matrix Internals
Initial Hessian          InHess   .... Almoef's Model

Convergence Tolerances:
Energy Change            TolE     ....  1.0000e-06 Eh
Max. Gradient            TolMAXG  ....  1.0000e-04 Eh/bohr
RMS Gradient             TolRMSG  ....  3.0000e-05 Eh/bohr
Max. Displacement        TolMAXD  ....  1.0000e-03 bohr
RMS Displacement         TolRMSD  ....  6.0000e-04 bohr
Strict Convergence                ....  False
------------------------------------------------------------------------------
                        ORCA OPTIMIZATION COORDINATE SETUP
------------------------------------------------------------------------------

The optimization will be done in new redundant internal coordinates
Making redundant internal coordinates   ...  (new redundants) done
Evaluating the initial hessian          ...  (Almloef) done
Evaluating the coordinates              ...  done
Calculating the B-matrix                .... done
Calculating the G-matrix                .... done
Diagonalizing the G-matrix              .... done
Small eigenvalue found = 1.699e-03
Small eigenvalue found = 3.037e-03
Small eigenvalue found = 5.337e-03
Small eigenvalue found = 8.178e-03
Small eigenvalue found = 8.406e-03
Small eigenvalue found = 1.642e-02
Small eigenvalue found = 1.963e-02
Small eigenvalue found = 2.695e-02
The first mode is                       ....  148
The number of degrees of freedom        ....  156

    -----------------------------------------------------------------
                    Redundant Internal Coordinates


    -----------------------------------------------------------------
         Definition                    Initial Value    Approx d2E/dq
    -----------------------------------------------------------------
      1. B(C   3,N   2)                  1.4713         0.415181   
      2. B(C   4,C   3)                  1.5278         0.376544   
      3. B(C   5,C   3)                  1.5277         0.376771   
      4. B(C   6,C   4)                  1.5309         0.372406   
      5. B(C   6,N   1)                  1.4447         0.457672   
      6. B(C   7,C   5)                  1.5311         0.372054   
      7. B(C   7,N   1)                  1.4448         0.457585   
      8. B(C   8,N   1)                  1.4486         0.451182   
      9. B(C   9,C   8)                  1.5415         0.358088   
     10. B(C  10,N   2)                  1.4381         0.468944   
     11. B(C  11,N   2)                  1.2981         0.784389   
     12. B(C  11,O   0)                  1.3086         0.754537   
     13. B(C  12,C   9)                  1.5015         0.414801   
     14. B(C  13,C  11)                  1.4966         0.422338   
     15. B(C  14,C  10)                  1.3881         0.629156   
     16. B(C  15,C  10)                  1.3881         0.629261   
     17. B(C  16,C  13)                  1.5263         0.378620   
     18. B(C  17,C  12)                  1.3887         0.627724   
     19. B(C  18,C  12)                  1.3888         0.627568   
     20. B(C  19,C  14)                  1.3847         0.637008   
     21. B(C  20,C  15)                  1.3847         0.636964   
     22. B(C  21,C  20)                  1.3852         0.635996   
     23. B(C  21,C  19)                  1.3852         0.636020   
     24. B(C  22,C  17)                  1.3834         0.640066   
     25. B(C  23,C  18)                  1.3834         0.640191   
     26. B(C  24,C  23)                  1.3843         0.637948   
     27. B(C  24,C  22)                  1.3843         0.637956   
     28. B(H  25,C   3)                  1.0935         0.355509   
     29. B(H  26,C   4)                  1.0899         0.360241   
     30. B(H  27,C   4)                  1.0911         0.358591   
     31. B(H  28,C   5)                  1.0911         0.358588   
     32. B(H  29,C   5)                  1.0899         0.360275   
     33. B(H  30,C   6)                  1.1046         0.341278   
     34. B(H  31,C   6)                  1.0909         0.358956   
     35. B(H  32,C   7)                  1.0909         0.358948   
     36. B(H  33,C   7)                  1.1046         0.341312   
     37. B(H  34,C   8)                  1.0932         0.355949   
     38. B(H  35,C   8)                  1.0931         0.355977   
     39. B(H  36,C   9)                  1.0917         0.357793   
     40. B(H  37,C   9)                  1.0917         0.357837   
     41. B(H  38,C  13)                  1.0939         0.355003   
     42. B(H  39,C  13)                  1.0938         0.355130   
     43. B(H  40,C  14)                  1.0791         0.374879   
     44. B(H  41,C  15)                  1.0791         0.374840   
     45. B(H  42,C  16)                  1.0893         0.361040   
     46. B(H  43,C  16)                  1.0893         0.360973   
     47. B(H  44,C  16)                  1.0864         0.364876   
     48. B(H  45,C  17)                  1.0812         0.371896   
     49. B(H  46,C  18)                  1.0813         0.371856   
     50. B(H  47,C  19)                  1.0784         0.375833   
     51. B(H  48,C  20)                  1.0784         0.375841   
     52. B(H  49,C  21)                  1.0782         0.376031   
     53. B(H  50,C  22)                  1.0799         0.373753   
     54. B(H  51,C  23)                  1.0799         0.373767   
     55. B(H  52,C  24)                  1.0794         0.374421   
     56. B(H  53,O   0)                  0.9738         0.494311   
     57. A(C  11,O   0,H  53)          112.2232         0.379548   
     58. A(C   7,N   1,C   8)          115.2254         0.383865   
     59. A(C   6,N   1,C   8)          115.1926         0.383878   
     60. A(C   6,N   1,C   7)          110.9270         0.384820   
     61. A(C   3,N   2,C  11)          122.3911         0.415908   
     62. A(C  10,N   2,C  11)          119.9753         0.425043   
     63. A(C   3,N   2,C  10)          117.6333         0.379978   
     64. A(C   4,C   3,C   5)          109.2531         0.364374   
     65. A(N   2,C   3,H  25)          106.8127         0.327334   
     66. A(N   2,C   3,C   4)          111.1434         0.368175   
     67. A(N   2,C   3,C   5)          111.3126         0.368213   
     68. A(C   5,C   3,H  25)          109.1209         0.324089   
     69. A(C   4,C   3,H  25)          109.1324         0.324057   
     70. A(C   3,C   4,C   6)          108.5992         0.363649   
     71. A(C   3,C   4,H  27)          110.6299         0.324517   
     72. A(C   6,C   4,H  26)          108.4633         0.324173   
     73. A(H  26,C   4,H  27)          109.4149         0.290665   
     74. A(C   6,C   4,H  27)          109.7977         0.323928   
     75. A(C   3,C   4,H  26)          109.8996         0.324762   
     76. A(C   3,C   5,H  29)          109.9195         0.324799   
     77. A(H  28,C   5,H  29)          109.4105         0.290670   
     78. A(C   3,C   5,C   7)          108.6148         0.363627   
     79. A(C   3,C   5,H  28)          110.6297         0.324549   
     80. A(C   7,C   5,H  29)          108.4655         0.324128   
     81. A(C   7,C   5,H  28)          109.7648         0.323878   
     82. A(C   4,C   6,H  31)          109.2465         0.323983   
     83. A(C   4,C   6,H  30)          109.0260         0.321312   
     84. A(N   1,C   6,H  30)          112.6714         0.330406   
     85. A(N   1,C   6,C   4)          108.8020         0.373688   
     86. A(H  30,C   6,H  31)          108.3231         0.288258   
     87. A(N   1,C   6,H  31)          108.7236         0.333182   
     88. A(H  32,C   7,H  33)          108.3209         0.288262   
     89. A(N   1,C   7,H  33)          112.6540         0.330402   
     90. A(C   5,C   7,H  33)          109.0377         0.321267   
     91. A(C   5,C   7,H  32)          109.2243         0.323931   
     92. A(N   1,C   7,H  32)          108.7121         0.333170   
     93. A(N   1,C   7,C   5)          108.8426         0.373614   
     94. A(C   9,C   8,H  35)          108.9576         0.321468   
     95. A(N   1,C   8,H  35)          107.4083         0.331935   
     96. A(C   9,C   8,H  34)          108.9361         0.321464   
     97. A(N   1,C   8,H  34)          107.3695         0.331931   
     98. A(N   1,C   8,C   9)          116.2228         0.370262   
     99. A(H  34,C   8,H  35)          107.6327         0.289786   
    100. A(C   8,C   9,H  37)          109.4659         0.321742   
    101. A(H  36,C   9,H  37)          108.7013         0.290259   
    102. A(C  12,C   9,H  37)          109.8872         0.329617   
    103. A(C   8,C   9,C  12)          109.5094         0.367250   
    104. A(C  12,C   9,H  36)          109.8287         0.329610   
    105. A(C   8,C   9,H  36)          109.4316         0.321736   
    106. A(C  14,C  10,C  15)          120.6861         0.436377   
    107. A(N   2,C  10,C  15)          119.6908         0.411347   
    108. A(N   2,C  10,C  14)          119.6220         0.411334   
    109. A(O   0,C  11,N   2)          118.7387         0.463238   
    110. A(N   2,C  11,C  13)          120.7594         0.419898   
    111. A(O   0,C  11,C  13)          120.5018         0.417005   
    112. A(C  17,C  12,C  18)          118.8700         0.435986   
    113. A(C   9,C  12,C  18)          120.5161         0.404927   
    114. A(C   9,C  12,C  17)          120.5779         0.404945   
    115. A(C  11,C  13,C  16)          113.9168         0.371934   
    116. A(H  38,C  13,H  39)          106.0790         0.289557   
    117. A(C  16,C  13,H  39)          109.9572         0.324293   
    118. A(C  11,C  13,H  39)          108.3692         0.330185   
    119. A(C  16,C  13,H  38)          109.9131         0.324274   
    120. A(C  11,C  13,H  38)          108.2912         0.330165   
    121. A(C  10,C  14,C  19)          119.4035         0.437340   
    122. A(C  19,C  14,H  40)          120.4104         0.356959   
    123. A(C  10,C  14,H  40)          120.1856         0.356208   
    124. A(C  10,C  15,C  20)          119.3975         0.437348   
    125. A(C  20,C  15,H  41)          120.4041         0.356948   
    126. A(C  10,C  15,H  41)          120.1979         0.356211   
    127. A(H  43,C  16,H  44)          107.0165         0.291553   
    128. A(H  42,C  16,H  44)          107.0431         0.291562   
    129. A(C  13,C  16,H  44)          108.8988         0.325739   
    130. A(H  42,C  16,H  43)          110.1034         0.291069   
    131. A(C  13,C  16,H  43)          111.7815         0.325164   
    132. A(C  13,C  16,H  42)          111.7623         0.325174   
    133. A(C  12,C  17,C  22)          120.6164         0.437538   
    134. A(C  22,C  17,H  45)          119.8024         0.356765   
    135. A(C  12,C  17,H  45)          119.5798         0.355587   
    136. A(C  23,C  18,H  46)          119.8008         0.356770   
    137. A(C  12,C  18,H  46)          119.5730         0.355566   
    138. A(C  12,C  18,C  23)          120.6247         0.437534   
    139. A(C  14,C  19,C  21)          120.2074         0.438197   
    140. A(C  21,C  19,H  47)          120.2572         0.357019   
    141. A(C  14,C  19,H  47)          119.5352         0.357113   
    142. A(C  15,C  20,C  21)          120.2135         0.438188   
    143. A(C  21,C  20,H  48)          120.2488         0.357018   
    144. A(C  15,C  20,H  48)          119.5375         0.357110   
    145. A(C  19,C  21,C  20)          120.0869         0.438071   
    146. A(C  20,C  21,H  49)          119.9579         0.357048   
    147. A(C  19,C  21,H  49)          119.9552         0.357051   
    148. A(C  24,C  22,H  50)          120.0609         0.356866   
    149. A(C  17,C  22,H  50)          119.8495         0.357067   
    150. A(C  17,C  22,C  24)          120.0895         0.438816   
    151. A(C  24,C  23,H  51)          120.0689         0.356868   
    152. A(C  18,C  23,H  51)          119.8489         0.357081   
    153. A(C  18,C  23,C  24)          120.0820         0.438830   
    154. A(C  23,C  24,H  52)          120.1388         0.356974   
    155. A(C  22,C  24,H  52)          120.1445         0.356975   
    156. A(C  22,C  24,C  23)          119.7165         0.438554   
    157. D(C   4,C   3,N   2,C  11)    118.4729         0.014701   
    158. D(C   4,C   3,N   2,C  10)    -61.3281         0.014701   
    159. D(H  25,C   3,N   2,C  10)    179.7278         0.014701   
    160. D(C   5,C   3,N   2,C  11)   -119.4962         0.014701   
    161. D(H  25,C   3,N   2,C  11)     -0.4712         0.014701   
    162. D(C   5,C   3,N   2,C  10)     60.7028         0.014701   
    163. D(C   6,C   4,C   3,N   2)   -179.4569         0.011311   
    164. D(H  27,C   4,C   3,N   2)    -58.8902         0.011311   
    165. D(H  27,C   4,C   3,C   5)    177.8899         0.011311   
    166. D(C   6,C   4,C   3,H  25)    -61.9137         0.011311   
    167. D(H  26,C   4,C   3,H  25)    179.5846         0.011311   
    168. D(H  26,C   4,C   3,C   5)    -61.1784         0.011311   
    169. D(H  26,C   4,C   3,N   2)     62.0415         0.011311   
    170. D(H  27,C   4,C   3,H  25)     58.6530         0.011311   
    171. D(C   6,C   4,C   3,C   5)     57.3232         0.011311   
    172. D(H  29,C   5,C   3,N   2)    -61.8502         0.011324   
    173. D(H  28,C   5,C   3,H  25)    -58.5478         0.011324   
    174. D(H  28,C   5,C   3,C   4)   -177.7919         0.011324   
    175. D(C   7,C   5,C   3,H  25)     61.9881         0.011324   
    176. D(H  29,C   5,C   3,H  25)   -179.4868         0.011324   
    177. D(C   7,C   5,C   3,C   4)    -57.2560         0.011324   
    178. D(H  29,C   5,C   3,C   4)     61.2691         0.011324   
    179. D(C   7,C   5,C   3,N   2)    179.6246         0.011324   
    180. D(H  28,C   5,C   3,N   2)     59.0888         0.011324   
    181. D(H  31,C   6,N   1,C   8)    -43.2356         0.017877   
    182. D(H  31,C   6,N   1,C   7)   -176.4025         0.017877   
    183. D(H  30,C   6,N   1,C   8)     76.8520         0.017877   
    184. D(H  30,C   6,N   1,C   7)    -56.3149         0.017877   
    185. D(C   4,C   6,N   1,C   8)   -162.1216         0.017877   
    186. D(N   1,C   6,C   4,C   3)    -60.0821         0.011078   
    187. D(C   4,C   6,N   1,C   7)     64.7115         0.017877   
    188. D(H  31,C   6,C   4,H  26)    -59.2350         0.011078   
    189. D(H  31,C   6,C   4,C   3)   -178.6399         0.011078   
    190. D(H  30,C   6,C   4,H  27)    -57.9251         0.011078   
    191. D(H  30,C   6,C   4,H  26)   -177.4400         0.011078   
    192. D(H  30,C   6,C   4,C   3)     63.1552         0.011078   
    193. D(N   1,C   6,C   4,H  27)    178.8376         0.011078   
    194. D(H  31,C   6,C   4,H  27)     60.2799         0.011078   
    195. D(N   1,C   6,C   4,H  26)     59.3228         0.011078   
    196. D(H  33,C   7,C   5,H  29)    177.2760         0.011058   
    197. D(H  33,C   7,C   5,H  28)     57.7844         0.011058   
    198. D(H  33,C   7,C   5,C   3)    -63.2852         0.011058   
    199. D(H  32,C   7,C   5,H  29)     59.0798         0.011058   
    200. D(H  32,C   7,C   5,H  28)    -60.4118         0.011058   
    201. D(H  32,C   7,C   5,C   3)    178.5187         0.011058   
    202. D(N   1,C   7,C   5,H  29)    -59.4750         0.011058   
    203. D(N   1,C   7,C   5,H  28)   -178.9666         0.011058   
    204. D(N   1,C   7,C   5,C   3)     59.9639         0.011058   
    205. D(H  33,C   7,N   1,C   8)    -76.7483         0.017871   
    206. D(H  33,C   7,N   1,C   6)     56.4021         0.017871   
    207. D(H  32,C   7,N   1,C   8)     43.3175         0.017871   
    208. D(H  32,C   7,N   1,C   6)    176.4680         0.017871   
    209. D(C   5,C   7,N   1,C   8)    162.1937         0.017871   
    210. D(C   5,C   7,N   1,C   6)    -64.6559         0.017871   
    211. D(H  35,C   8,N   1,C   7)    -56.8210         0.017367   
    212. D(H  35,C   8,N   1,C   6)    172.0357         0.017367   
    213. D(H  34,C   8,N   1,C   7)   -172.3328         0.017367   
    214. D(H  34,C   8,N   1,C   6)     56.5239         0.017367   
    215. D(C   9,C   8,N   1,C   7)     65.4523         0.017367   
    216. D(C   9,C   8,N   1,C   6)    -65.6910         0.017367   
    217. D(C  12,C   9,C   8,H  35)    -59.2300         0.010295   
    218. D(C  12,C   9,C   8,H  34)     57.9289         0.010295   
    219. D(C  12,C   9,C   8,N   1)    179.3154         0.010295   
    220. D(H  37,C   9,C   8,H  35)     61.3005         0.010295   
    221. D(H  37,C   9,C   8,H  34)    178.4593         0.010295   
    222. D(H  37,C   9,C   8,N   1)    -60.1542         0.010295   
    223. D(H  36,C   9,C   8,H  35)   -179.6673         0.010295   
    224. D(H  36,C   9,C   8,H  34)    -62.5084         0.010295   
    225. D(H  36,C   9,C   8,N   1)     58.8780         0.010295   
    226. D(C  15,C  10,N   2,C  11)    -89.8428         0.017333   
    227. D(C  15,C  10,N   2,C   3)     89.9632         0.017333   
    228. D(C  14,C  10,N   2,C  11)     90.5130         0.017333   
    229. D(C  14,C  10,N   2,C   3)    -89.6810         0.017333   
    230. D(C  13,C  11,N   2,C  10)      0.1503         0.052206   
    231. D(C  13,C  11,N   2,C   3)   -179.6462         0.052206   
    232. D(O   0,C  11,N   2,C  10)   -179.9012         0.052206   
    233. D(O   0,C  11,N   2,C   3)      0.3023         0.052206   
    234. D(C  13,C  11,O   0,H  53)     -0.1700         0.043297   
    235. D(N   2,C  11,O   0,H  53)    179.8814         0.043297   
    236. D(C  18,C  12,C   9,H  37)    150.9718         0.012733   
    237. D(C  18,C  12,C   9,H  36)     31.4406         0.012733   
    238. D(C  18,C  12,C   9,C   8)    -88.7546         0.012733   
    239. D(C  17,C  12,C   9,H  37)    -31.2361         0.012733   
    240. D(C  17,C  12,C   9,H  36)   -150.7673         0.012733   
    241. D(C  17,C  12,C   9,C   8)     89.0376         0.012733   
    242. D(H  39,C  13,C  11,N   2)    -56.9633         0.013185   
    243. D(H  39,C  13,C  11,O   0)    123.0891         0.013185   
    244. D(H  38,C  13,C  11,N   2)     57.6899         0.013185   
    245. D(H  38,C  13,C  11,O   0)   -122.2577         0.013185   
    246. D(C  16,C  13,C  11,N   2)   -179.6939         0.013185   
    247. D(C  16,C  13,C  11,O   0)      0.3585         0.013185   
    248. D(H  40,C  14,C  10,C  15)    179.4667         0.027441   
    249. D(H  40,C  14,C  10,N   2)     -0.8927         0.027441   
    250. D(C  19,C  14,C  10,C  15)     -0.7845         0.027441   
    251. D(C  19,C  14,C  10,N   2)    178.8561         0.027441   
    252. D(H  41,C  15,C  10,C  14)   -179.4996         0.027451   
    253. D(H  41,C  15,C  10,N   2)      0.8601         0.027451   
    254. D(C  20,C  15,C  10,C  14)      0.7687         0.027451   
    255. D(C  20,C  15,C  10,N   2)   -178.8717         0.027451   
    256. D(H  44,C  16,C  13,H  39)     58.2135         0.011430   
    257. D(H  44,C  16,C  13,C  11)   -179.9291         0.011430   
    258. D(H  43,C  16,C  13,H  39)    176.2418         0.011430   
    259. D(H  43,C  16,C  13,H  38)     59.8223         0.011430   
    260. D(H  43,C  16,C  13,C  11)    -61.9008         0.011430   
    261. D(H  42,C  16,C  13,H  39)    -59.8360         0.011430   
    262. D(H  44,C  16,C  13,H  38)    -58.2059         0.011430   
    263. D(H  42,C  16,C  13,H  38)   -176.2555         0.011430   
    264. D(H  42,C  16,C  13,C  11)     62.0214         0.011430   
    265. D(H  45,C  17,C  12,C  18)   -179.8956         0.027308   
    266. D(H  45,C  17,C  12,C   9)      2.2763         0.027308   
    267. D(C  22,C  17,C  12,C  18)     -0.3400         0.027308   
    268. D(C  22,C  17,C  12,C   9)   -178.1681         0.027308   
    269. D(H  46,C  18,C  12,C  17)    179.8981         0.027294   
    270. D(H  46,C  18,C  12,C   9)     -2.2725         0.027294   
    271. D(C  23,C  18,C  12,C  17)      0.3398         0.027294   
    272. D(C  23,C  18,C  12,C   9)    178.1692         0.027294   
    273. D(H  47,C  19,C  14,H  40)      0.1866         0.028175   
    274. D(H  47,C  19,C  14,C  10)   -179.5617         0.028175   
    275. D(C  21,C  19,C  14,H  40)   -179.9902         0.028175   
    276. D(C  21,C  19,C  14,C  10)      0.2615         0.028175   
    277. D(H  48,C  20,C  15,H  41)     -0.1408         0.028171   
    278. D(H  48,C  20,C  15,C  10)    179.5904         0.028171   
    279. D(C  21,C  20,C  15,H  41)   -179.9611         0.028171   
    280. D(C  21,C  20,C  15,C  10)     -0.2300         0.028171   
    281. D(H  49,C  21,C  19,C  14)   -179.7464         0.028082   
    282. D(C  20,C  21,C  19,H  47)   -179.9087         0.028082   
    283. D(C  20,C  21,C  19,C  14)      0.2694         0.028082   
    284. D(H  49,C  21,C  20,H  48)     -0.0886         0.028080   
    285. D(H  49,C  21,C  20,C  15)    179.7304         0.028080   
    286. D(C  19,C  21,C  20,H  48)    179.8956         0.028080   
    287. D(C  19,C  21,C  20,C  15)     -0.2853         0.028080   
    288. D(H  49,C  21,C  19,H  47)      0.0756         0.028082   
    289. D(H  50,C  22,C  17,H  45)     -0.1396         0.028465   
    290. D(H  50,C  22,C  17,C  12)   -179.6942         0.028465   
    291. D(C  24,C  22,C  17,H  45)    179.7435         0.028465   
    292. D(C  24,C  22,C  17,C  12)      0.1889         0.028465   
    293. D(H  51,C  23,C  18,H  46)      0.1442         0.028477   
    294. D(H  51,C  23,C  18,C  12)    179.7015         0.028477   
    295. D(C  24,C  23,C  18,H  46)   -179.7456         0.028477   
    296. D(C  24,C  23,C  18,C  12)     -0.1883         0.028477   
    297. D(H  52,C  24,C  23,H  51)     -0.0153         0.028264   
    298. D(H  52,C  24,C  23,C  18)    179.8743         0.028264   
    299. D(C  22,C  24,C  23,H  51)   -179.8584         0.028264   
    300. D(C  22,C  24,C  23,C  18)      0.0312         0.028264   
    301. D(H  52,C  24,C  22,H  50)      0.0083         0.028265   
    302. D(H  52,C  24,C  22,C  17)   -179.8746         0.028265   
    303. D(C  23,C  24,C  22,H  50)    179.8513         0.028265   
    304. D(C  23,C  24,C  22,C  17)     -0.0315         0.028265   
    -----------------------------------------------------------------

Number of atoms                         .... 54
Number of degrees of freedom            .... 304

         *************************************************************
         *                GEOMETRY OPTIMIZATION CYCLE   1            *
         *************************************************************
---------------------------------
CARTESIAN COORDINATES (ANGSTROEM)
---------------------------------
  O      3.245002    2.692649    0.068426
  N     -1.332784   -0.192633    0.039210
  N      2.824080    0.492771   -0.051768
  C      1.372641    0.724429    0.013448
  C      0.676040    0.214838   -1.247256
  C      0.756934    0.048553    1.237337
  C     -0.823657    0.496363   -1.124115
  C     -0.746924    0.335891    1.249512
  C     -2.770693   -0.365073    0.073566
  C     -3.608653    0.923523    0.190366
  C      3.278506   -0.867951   -0.152218
  C      3.685117    1.463815   -0.025408
  C     -5.068752    0.573388    0.196096
  C      5.153858    1.186735   -0.101865
  C      3.531085   -1.594049    1.003562
  C      3.452909   -1.444009   -1.403000
  C      6.023503    2.440064   -0.050648
  C     -5.724612    0.298367    1.388897
  C     -5.774941    0.474598   -0.995663
  C      3.945585   -2.911369    0.901896
  C      3.868128   -2.762012   -1.492415
  C      4.111317   -3.495725   -0.342978
  C     -7.060527   -0.061070    1.391763
  C     -7.110859    0.115369   -0.995491
  C     -7.756875   -0.153728    0.198921
  H      1.228063    1.805568    0.090663
  H      0.818639   -0.861656   -1.340496
  H      1.073741    0.711516   -2.133675
  H      1.212096    0.425745    2.154480
  H      0.901829   -1.030014    1.178090
  H     -0.982237    1.588452   -1.075473
  H     -1.335017    0.114642   -2.008868
  H     -1.201301   -0.164514    2.105746
  H     -0.905044    1.423612    1.358932
  H     -3.057908   -0.893478   -0.839279
  H     -3.001775   -1.016906    0.920122
  H     -3.388102    1.578075   -0.655114
  H     -3.348063    1.444510    1.113680
  H      5.351310    0.633715   -1.024772
  H      5.420734    0.513412    0.717755
  H      3.401073   -1.135515    1.971650
  H      3.261979   -0.869774   -2.296427
  H      5.898932    2.980012    0.887164
  H      5.827815    3.102538   -0.892964
  H      7.067685    2.146622   -0.112847
  H     -5.186294    0.373364    2.323583
  H     -5.275932    0.687793   -1.930890
  H      4.135556   -3.479579    1.798506
  H      3.997941   -3.213819   -2.462912
  H      4.430287   -4.522991   -0.417351
  H     -7.559591   -0.267425    2.326895
  H     -7.649165    0.047056   -1.929117
  H     -8.799737   -0.432126    0.200279
  H      3.969391    3.343261    0.082129

----------------------------
CARTESIAN COORDINATES (A.U.)
----------------------------
  NO LB      ZA    FRAG     MASS         X           Y           Z
   0 O     8.0000    0    15.999    6.132164    5.088369    0.129307
   1 N     7.0000    0    14.007   -2.518597   -0.364023    0.074096
   2 N     7.0000    0    14.007    5.336737    0.931203   -0.097828
   3 C     6.0000    0    12.011    2.593916    1.368973    0.025412
   4 C     6.0000    0    12.011    1.277530    0.405985   -2.356971
   5 C     6.0000    0    12.011    1.430397    0.091752    2.338227
   6 C     6.0000    0    12.011   -1.556487    0.937991   -2.124269
   7 C     6.0000    0    12.011   -1.411482    0.634742    2.361235
   8 C     6.0000    0    12.011   -5.235851   -0.689887    0.139019
   9 C     6.0000    0    12.011   -6.819366    1.745206    0.359739
  10 C     6.0000    0    12.011    6.195479   -1.640189   -0.287650
  11 C     6.0000    0    12.011    6.963861    2.766210   -0.048013
  12 C     6.0000    0    12.011   -9.578553    1.083546    0.370568
  13 C     6.0000    0    12.011    9.739381    2.242603   -0.192497
  14 C     6.0000    0    12.011    6.672784   -3.012316    1.896457
  15 C     6.0000    0    12.011    6.525052   -2.728782   -2.651285
  16 C     6.0000    0    12.011   11.382771    4.611052   -0.095711
  17 C     6.0000    0    12.011  -10.817949    0.563832    2.624636
  18 C     6.0000    0    12.011  -10.913057    0.896861   -1.881530
  19 C     6.0000    0    12.011    7.456076   -5.501691    1.704337
  20 C     6.0000    0    12.011    7.309702   -5.219445   -2.820255
  21 C     6.0000    0    12.011    7.769262   -6.605962   -0.648135
  22 C     6.0000    0    12.011  -13.342462   -0.115406    2.630051
  23 C     6.0000    0    12.011  -13.437577    0.218015   -1.881205
  24 C     6.0000    0    12.011  -14.658369   -0.290504    0.375906
  25 H     1.0000    0     1.008    2.320703    3.412030    0.171328
  26 H     1.0000    0     1.008    1.547003   -1.628294   -2.533171
  27 H     1.0000    0     1.008    2.029077    1.344570   -4.032061
  28 H     1.0000    0     1.008    2.290529    0.804541    4.071377
  29 H     1.0000    0     1.008    1.704210   -1.946444    2.226268
  30 H     1.0000    0     1.008   -1.856159    3.001739   -2.032349
  31 H     1.0000    0     1.008   -2.522817    0.216641   -3.796210
  32 H     1.0000    0     1.008   -2.270131   -0.310887    3.979283
  33 H     1.0000    0     1.008   -1.710286    2.690237    2.568009
  34 H     1.0000    0     1.008   -5.778609   -1.688429   -1.586007
  35 H     1.0000    0     1.008   -5.672533   -1.921674    1.738779
  36 H     1.0000    0     1.008   -6.402584    2.982130   -1.237986
  37 H     1.0000    0     1.008   -6.326923    2.729728    2.104551
  38 H     1.0000    0     1.008   10.112510    1.197548   -1.936539
  39 H     1.0000    0     1.008   10.243702    0.970209    1.356360
  40 H     1.0000    0     1.008    6.427097   -2.145813    3.725879
  41 H     1.0000    0     1.008    6.164246   -1.643635   -4.339618
  42 H     1.0000    0     1.008   11.147366    5.631407    1.676496
  43 H     1.0000    0     1.008   11.012974    5.862948   -1.687458
  44 H     1.0000    0     1.008   13.355990    4.056527   -0.213250
  45 H     1.0000    0     1.008   -9.800674    0.705556    4.390936
  46 H     1.0000    0     1.008   -9.970067    1.299741   -3.648853
  47 H     1.0000    0     1.008    7.815069   -6.575452    3.398683
  48 H     1.0000    0     1.008    7.555014   -6.073238   -4.654229
  49 H     1.0000    0     1.008    8.372029   -8.547215   -0.788679
  50 H     1.0000    0     1.008  -14.285558   -0.505359    4.397195
  51 H     1.0000    0     1.008  -14.454827    0.088923   -3.645503
  52 H     1.0000    0     1.008  -16.629093   -0.816599    0.378473
  53 H     1.0000    0     1.008    7.501063    6.317848    0.155202

--------------------------------
INTERNAL COORDINATES (ANGSTROEM)
--------------------------------
 O      0   0   0     0.000000000000     0.00000000     0.00000000
 N      1   0   0     5.411268340921     0.00000000     0.00000000
 N      1   2   0     2.243007643274    47.00063514     0.00000000
 C      3   1   2     1.471255234071    91.62330926   359.81182063
 C      4   3   1     1.527844649199   111.14336753   118.62764583
 C      4   3   1     1.527681042145   111.31259085   240.65849739
 C      2   1   3     1.444731879888    56.76604580   258.97913016
 C      2   1   3     1.444783408927    57.13800638   100.28707436
 C      2   1   3     1.448619325281   154.56334049   180.09569771
 C      9   2   1     1.541524892454   116.22282406   359.40569738
 C      3   1   2     1.438108976341   150.74331103   179.73153552
 C      3   1   2     1.298077611656    30.76811040   179.55643365
 C     10   9   2     1.501504853410   109.50942251   179.31536917
 C     12   3   1     1.496603317126   120.75943102   180.05150076
 C     11   3   1     1.388107238392   119.62203841    90.40956309
 C     11   3   1     1.388061631471   119.69084436   270.05378329
 C     14  12   3     1.526348264966   113.91683971   180.30608850
 C     13  10   9     1.388727404742   120.57788154    89.03758258
 C     13  10   9     1.388795010701   120.51612986   271.24544538
 C     15  11   3     1.384730891865   119.40350265   178.85614080
 C     16  11   3     1.384749750971   119.39745481   181.12832959
 C     20  15  11     1.385153634690   120.20740848     0.26153063
 C     18  13  10     1.383427398253   120.61635468   181.83194387
 C     19  13  10     1.383374058893   120.62469099   178.16919912
 C     23  18  13     1.384326199349   120.08953396     0.18885983
 H      4   3   1     1.093492928278   106.81265146   359.68353561
 H      5   4   3     1.089893762145   109.89964131    62.04148412
 H      5   4   3     1.091143422416   110.62992599   301.10982672
 H      6   4   3     1.091145055977   110.62965584    59.08878061
 H      6   4   3     1.089867598616   109.91947353   298.14978810
 H      7   2   1     1.104613468700   112.67141661   284.61115111
 H      7   2   1     1.090866335445   108.72357607   164.52359103
 H      8   2   1     1.090872109766   108.71206161   195.45843328
 H      8   2   1     1.104586482379   112.65402235    75.39257625
 H      9   2   1     1.093156046999   107.36949007   121.62061113
 H      9   2   1     1.093134630446   107.40834106   237.13235002
 H     10   9   2     1.091749835278   109.43156240    58.87803460
 H     10   9   2     1.091715936926   109.46586845   299.84582416
 H     14  12   3     1.093880696231   108.29117587    57.68991178
 H     14  12   3     1.093783091100   108.36919686   303.03672965
 H     15  11   3     1.079050944092   120.18564468   359.10730833
 H     16  11   3     1.079079617356   120.19791454     0.86006251
 H     17  14  12     1.089290029792   111.76227974    62.02141659
 H     17  14  12     1.089340645189   111.78146430   298.09920598
 H     17  14  12     1.086413316998   108.89882725   180.07094403
 H     18  13  10     1.081225811367   119.57980186     2.27631891
 H     19  13  10     1.081255054973   119.57304819   357.72750405
 H     20  15  11     1.078359730521   119.53518880   180.43833024
 H     21  16  11     1.078353449803   119.53747011   179.59036824
 H     22  20  15     1.078216187254   119.95522117   180.25364098
 H     23  18  13     1.079870342656   119.84945932   180.30576305
 H     24  19  13     1.079859884511   119.84894899   179.70149799
 H     25  23  18     1.079383779400   120.14449660   180.12542887
 H      1   2   3     0.973768399009   170.28146925   179.05874458

---------------------------
INTERNAL COORDINATES (A.U.)
---------------------------
 O      0   0   0     0.000000000000     0.00000000     0.00000000
 N      1   0   0    10.225815201499     0.00000000     0.00000000
 N      1   2   0     4.238670162080    47.00063514     0.00000000
 C      3   1   2     2.780269465493    91.62330926   359.81182063
 C      4   3   1     2.887207962162   111.14336753   118.62764583
 C      4   3   1     2.886898789637   111.31259085   240.65849739
 C      2   1   3     2.730147589934    56.76604580   258.97913016
 C      2   1   3     2.730244965706    57.13800638   100.28707436
 C      2   1   3     2.737493797087   154.56334049   180.09569771
 C      9   2   1     2.913059875361   116.22282406   359.40569738
 C      3   1   2     2.717632116018   150.74331103   179.73153552
 C      3   1   2     2.453011186604    30.76811040   179.55643365
 C     10   9   2     2.837432961699   109.50942251   179.31536917
 C     12   3   1     2.828170400486   120.75943102   180.05150076
 C     11   3   1     2.623142525074   119.62203841    90.40956309
 C     11   3   1     2.623056340485   119.69084436   270.05378329
 C     14  12   3     2.884380205772   113.91683971   180.30608850
 C     13  10   9     2.624314469634   120.57788154    89.03758258
 C     13  10   9     2.624442226382   120.51612986   271.24544538
 C     15  11   3     2.616762154806   119.40350265   178.85614080
 C     16  11   3     2.616797793351   119.39745481   181.12832959
 C     20  15  11     2.617561022971   120.20740848     0.26153063
 C     18  13  10     2.614298908862   120.61635468   181.83194387
 C     19  13  10     2.614198112079   120.62469099   178.16919912
 C     23  18  13     2.615997396782   120.08953396     0.18885983
 H      4   3   1     2.066402163824   106.81265146   359.68353561
 H      5   4   3     2.059600725522   109.89964131    62.04148412
 H      5   4   3     2.061962241195   110.62992599   301.10982672
 H      6   4   3     2.061965328179   110.62965584    59.08878061
 H      6   4   3     2.059551283620   109.91947353   298.14978810
 H      7   2   1     2.087416939684   112.67141661   284.61115111
 H      7   2   1     2.061438622705   108.72357607   164.52359103
 H      8   2   1     2.061449534591   108.71206161   195.45843328
 H      8   2   1     2.087365942927   112.65402235    75.39257625
 H      9   2   1     2.065765550468   107.36949007   121.62061113
 H      9   2   1     2.065725079049   107.40834106   237.13235002
 H     10   9   2     2.063108195430   109.43156240    58.87803460
 H     10   9   2     2.063044136827   109.46586845   299.84582416
 H     14  12   3     2.067134939060   108.29117587    57.68991178
 H     14  12   3     2.066950492093   108.36919686   303.03672965
 H     15  11   3     2.039110768882   120.18564468   359.10730833
 H     16  11   3     2.039164953500   120.19791454     0.86006251
 H     17  14  12     2.058459836718   111.76227974    62.02141659
 H     17  14  12     2.058555485955   111.78146430   298.09920598
 H     17  14  12     2.053023637371   108.89882725   180.07094403
 H     18  13  10     2.043220672410   119.57980186     2.27631891
 H     19  13  10     2.043275934817   119.57304819   357.72750405
 H     20  15  11     2.037804564533   119.53518880   180.43833024
 H     21  16  11     2.037792695696   119.53747011   179.59036824
 H     22  20  15     2.037533307071   119.95522117   180.25364098
 H     23  18  13     2.040659207763   119.84945932   180.30576305
 H     24  19  13     2.040639444734   119.84894899   179.70149799
 H     25  23  18     2.039739736463   120.14449660   180.12542887
 H      1   2   3     1.840155591994   170.28146925   179.05874458

---------------------
BASIS SET INFORMATION
---------------------
There are 4 groups of distinct atoms

 Group   1 Type O   : 11s6p2d1f contracted to 5s3p2d1f pattern {62111/411/11/1}
 Group   2 Type N   : 11s6p2d1f contracted to 5s3p2d1f pattern {62111/411/11/1}
 Group   3 Type C   : 11s6p2d1f contracted to 5s3p2d1f pattern {62111/411/11/1}
 Group   4 Type H   : 5s1p contracted to 3s1p pattern {311/1}

Atom   0O    basis set group =>   1
Atom   1N    basis set group =>   2
Atom   2N    basis set group =>   2
Atom   3C    basis set group =>   3
Atom   4C    basis set group =>   3
Atom   5C    basis set group =>   3
Atom   6C    basis set group =>   3
Atom   7C    basis set group =>   3
Atom   8C    basis set group =>   3
Atom   9C    basis set group =>   3
Atom  10C    basis set group =>   3
Atom  11C    basis set group =>   3
Atom  12C    basis set group =>   3
Atom  13C    basis set group =>   3
Atom  14C    basis set group =>   3
Atom  15C    basis set group =>   3
Atom  16C    basis set group =>   3
Atom  17C    basis set group =>   3
Atom  18C    basis set group =>   3
Atom  19C    basis set group =>   3
Atom  20C    basis set group =>   3
Atom  21C    basis set group =>   3
Atom  22C    basis set group =>   3
Atom  23C    basis set group =>   3
Atom  24C    basis set group =>   3
Atom  25H    basis set group =>   4
Atom  26H    basis set group =>   4
Atom  27H    basis set group =>   4
Atom  28H    basis set group =>   4
Atom  29H    basis set group =>   4
Atom  30H    basis set group =>   4
Atom  31H    basis set group =>   4
Atom  32H    basis set group =>   4
Atom  33H    basis set group =>   4
Atom  34H    basis set group =>   4
Atom  35H    basis set group =>   4
Atom  36H    basis set group =>   4
Atom  37H    basis set group =>   4
Atom  38H    basis set group =>   4
Atom  39H    basis set group =>   4
Atom  40H    basis set group =>   4
Atom  41H    basis set group =>   4
Atom  42H    basis set group =>   4
Atom  43H    basis set group =>   4
Atom  44H    basis set group =>   4
Atom  45H    basis set group =>   4
Atom  46H    basis set group =>   4
Atom  47H    basis set group =>   4
Atom  48H    basis set group =>   4
Atom  49H    basis set group =>   4
Atom  50H    basis set group =>   4
Atom  51H    basis set group =>   4
Atom  52H    basis set group =>   4
Atom  53H    basis set group =>   4
---------------------------------
AUXILIARY/J BASIS SET INFORMATION
---------------------------------
There are 4 groups of distinct atoms

 Group   1 Type O   : 12s5p4d2f1g contracted to 6s4p3d1f1g pattern {711111/2111/211/2/1}
 Group   2 Type N   : 12s5p4d2f1g contracted to 6s4p3d1f1g pattern {711111/2111/211/2/1}
 Group   3 Type C   : 12s5p4d2f1g contracted to 6s4p3d1f1g pattern {711111/2111/211/2/1}
 Group   4 Type H   : 5s2p1d contracted to 3s1p1d pattern {311/2/1}

Atom   0O    basis set group =>   1
Atom   1N    basis set group =>   2
Atom   2N    basis set group =>   2
Atom   3C    basis set group =>   3
Atom   4C    basis set group =>   3
Atom   5C    basis set group =>   3
Atom   6C    basis set group =>   3
Atom   7C    basis set group =>   3
Atom   8C    basis set group =>   3
Atom   9C    basis set group =>   3
Atom  10C    basis set group =>   3
Atom  11C    basis set group =>   3
Atom  12C    basis set group =>   3
Atom  13C    basis set group =>   3
Atom  14C    basis set group =>   3
Atom  15C    basis set group =>   3
Atom  16C    basis set group =>   3
Atom  17C    basis set group =>   3
Atom  18C    basis set group =>   3
Atom  19C    basis set group =>   3
Atom  20C    basis set group =>   3
Atom  21C    basis set group =>   3
Atom  22C    basis set group =>   3
Atom  23C    basis set group =>   3
Atom  24C    basis set group =>   3
Atom  25H    basis set group =>   4
Atom  26H    basis set group =>   4
Atom  27H    basis set group =>   4
Atom  28H    basis set group =>   4
Atom  29H    basis set group =>   4
Atom  30H    basis set group =>   4
Atom  31H    basis set group =>   4
Atom  32H    basis set group =>   4
Atom  33H    basis set group =>   4
Atom  34H    basis set group =>   4
Atom  35H    basis set group =>   4
Atom  36H    basis set group =>   4
Atom  37H    basis set group =>   4
Atom  38H    basis set group =>   4
Atom  39H    basis set group =>   4
Atom  40H    basis set group =>   4
Atom  41H    basis set group =>   4
Atom  42H    basis set group =>   4
Atom  43H    basis set group =>   4
Atom  44H    basis set group =>   4
Atom  45H    basis set group =>   4
Atom  46H    basis set group =>   4
Atom  47H    basis set group =>   4
Atom  48H    basis set group =>   4
Atom  49H    basis set group =>   4
Atom  50H    basis set group =>   4
Atom  51H    basis set group =>   4
Atom  52H    basis set group =>   4
Atom  53H    basis set group =>   4


           ************************************************************
           *        Program running with 8 parallel MPI-processes     *
           *              working on a common directory               *
           ************************************************************
------------------------------------------------------------------------------
                           ORCA GTO INTEGRAL CALCULATION
                           -- RI-GTO INTEGRALS CHOSEN --
------------------------------------------------------------------------------
------------------------------------------------------------------------------
                   ___                                                        
                  /   \      - P O W E R E D   B Y -                         
                 /     \                                                     
                 |  |  |   _    _      __       _____    __    __             
                 |  |  |  | |  | |    /  \     |  _  \  |  |  /  |          
                  \  \/   | |  | |   /    \    | | | |  |  | /  /          
                 / \  \   | |__| |  /  /\  \   | |_| |  |  |/  /          
                |  |  |   |  __  | /  /__\  \  |    /   |      \           
                |  |  |   | |  | | |   __   |  |    \   |  |\   \          
                \     /   | |  | | |  |  |  |  | |\  \  |  | \   \       
                 \___/    |_|  |_| |__|  |__|  |_| \__\ |__|  \__/        
                                                                              
                      - O R C A' S   B I G   F R I E N D -                    
                                      &                                       
                       - I N T E G R A L  F E E D E R -                       
                                                                              
 v1 FN, 2020, v2 2021                                                         
------------------------------------------------------------------------------


Reading SHARK input file Fentanyl_OProt_47.SHARKINP.tmp ... ok
----------------------
SHARK INTEGRAL PACKAGE
----------------------

Number of atoms                             ...     54
Number of basis functions                   ...    949
Number of shells                            ...    391
Maximum angular momentum                    ...      3
Integral batch strategy                     ... SHARK/LIBINT Hybrid
RI-J (if used) integral strategy            ... SPLIT-RIJ (Revised 2003 algorithm where possible)
Printlevel                                  ...      1
Contraction scheme used                     ... SEGMENTED contraction
Coulomb Range Separation                    ... NOT USED
Exchange Range Separation                   ... Long Range
   Mu parameter                             ...  0.300000
   Scaling (regular/separated)              ...  0.167000  0.833000
Finite Nucleus Model                        ... NOT USED
Auxiliary Coulomb fitting basis             ... AVAILABLE
   # of basis functions in Aux-J            ...   1544
   # of shells in Aux-J                     ...    520
   Maximum angular momentum in Aux-J        ...      4
Auxiliary J/K fitting basis                 ... NOT available
Auxiliary Correlation fitting basis         ... NOT available
Auxiliary 'external' fitting basis          ... NOT available
Integral threshold                          ...     2.500000e-11
Primitive cut-off                           ...     2.500000e-12
Primitive pair pre-selection threshold      ...     2.500000e-12

Calculating pre-screening integrals         ... done (  0.1 sec) Dimension = 391
Organizing shell pair data                  ... done (  0.5 sec)
Shell pair information
Total number of shell pairs                 ...     76636
Shell pairs after pre-screening             ...     46543
Total number of primitive shell pairs       ...    228112
Primitive shell pairs kept                  ...     92529
          la=0 lb=0:  13541 shell pairs
          la=1 lb=0:  13923 shell pairs
          la=1 lb=1:   3613 shell pairs
          la=2 lb=0:   6248 shell pairs
          la=2 lb=1:   3177 shell pairs
          la=2 lb=2:    729 shell pairs
          la=3 lb=0:   2933 shell pairs
          la=3 lb=1:   1526 shell pairs
          la=3 lb=2:    678 shell pairs
          la=3 lb=3:    175 shell pairs

Calculating one electron integrals          ... done (  0.1 sec)
Calculating RI/J V-Matrix + Cholesky decomp.... done (  0.4 sec)
Calculating Nuclear repulsion               ... done (  0.0 sec) ENN=   2124.771192708980 Eh

SHARK setup successfully completed in   2.1 seconds

Maximum memory used throughout the entire GTOINT-calculation: 70.6 MB
[1703434110.248916] [gra308:4290 :0]          mpool.c:42   UCX  WARN  object 0xae71e80 was not returned to mpool ucp_requests
[1703434110.248955] [gra308:4290 :0]          mpool.c:42   UCX  WARN  object 0xae72040 was not returned to mpool ucp_requests
[1703434110.248969] [gra308:4290 :0]          mpool.c:42   UCX  WARN  object 0xae72200 was not returned to mpool ucp_requests
[1703434110.248983] [gra308:4290 :0]          mpool.c:42   UCX  WARN  object 0xae723c0 was not returned to mpool ucp_requests
[1703434110.248994] [gra308:4290 :0]          mpool.c:42   UCX  WARN  object 0xae72580 was not returned to mpool ucp_requests
[1703434110.249019] [gra308:4290 :0]          mpool.c:42   UCX  WARN  object 0xae72740 was not returned to mpool ucp_requests
[1703434110.249033] [gra308:4290 :0]          mpool.c:42   UCX  WARN  object 0xae72900 was not returned to mpool ucp_requests
[1703434110.249051] [gra308:4290 :0]          mpool.c:42   UCX  WARN  object 0xae72ac0 was not returned to mpool ucp_requests
[1703434110.249071] [gra308:4290 :0]          mpool.c:42   UCX  WARN  object 0xae72c80 was not returned to mpool ucp_requests
[1703434110.249082] [gra308:4290 :0]          mpool.c:42   UCX  WARN  object 0xae72e40 was not returned to mpool ucp_requests
[1703434110.249092] [gra308:4290 :0]          mpool.c:42   UCX  WARN  object 0xae73000 was not returned to mpool ucp_requests
[1703434110.249103] [gra308:4290 :0]          mpool.c:42   UCX  WARN  object 0xae731c0 was not returned to mpool ucp_requests
[1703434110.320763] [gra308:4296 :0]          mpool.c:42   UCX  WARN  object 0xb8a3e00 was not returned to mpool ucp_requests
[1703434110.320806] [gra308:4296 :0]          mpool.c:42   UCX  WARN  object 0xb8a3fc0 was not returned to mpool ucp_requests
[1703434110.320820] [gra308:4296 :0]          mpool.c:42   UCX  WARN  object 0xb8a4180 was not returned to mpool ucp_requests
[1703434110.320832] [gra308:4296 :0]          mpool.c:42   UCX  WARN  object 0xb8a4340 was not returned to mpool ucp_requests
[1703434110.320842] [gra308:4296 :0]          mpool.c:42   UCX  WARN  object 0xb8a4500 was not returned to mpool ucp_requests
[1703434110.320853] [gra308:4296 :0]          mpool.c:42   UCX  WARN  object 0xb8a46c0 was not returned to mpool ucp_requests
[1703434110.320863] [gra308:4296 :0]          mpool.c:42   UCX  WARN  object 0xb8a4880 was not returned to mpool ucp_requests
[1703434110.320874] [gra308:4296 :0]          mpool.c:42   UCX  WARN  object 0xb8a4a40 was not returned to mpool ucp_requests
[1703434110.320884] [gra308:4296 :0]          mpool.c:42   UCX  WARN  object 0xb8a4c00 was not returned to mpool ucp_requests
[1703434110.320894] [gra308:4296 :0]          mpool.c:42   UCX  WARN  object 0xb8a4dc0 was not returned to mpool ucp_requests
[1703434110.320904] [gra308:4296 :0]          mpool.c:42   UCX  WARN  object 0xb8a4f80 was not returned to mpool ucp_requests
[1703434110.320914] [gra308:4296 :0]          mpool.c:42   UCX  WARN  object 0xb8a5140 was not returned to mpool ucp_requests
[1703434110.322692] [gra308:4292 :0]          mpool.c:42   UCX  WARN  object 0xc40ae80 was not returned to mpool ucp_requests
[1703434110.322827] [gra308:4292 :0]          mpool.c:42   UCX  WARN  object 0xc40b040 was not returned to mpool ucp_requests
[1703434110.322944] [gra308:4292 :0]          mpool.c:42   UCX  WARN  object 0xc40b200 was not returned to mpool ucp_requests
[1703434110.323058] [gra308:4292 :0]          mpool.c:42   UCX  WARN  object 0xc40b3c0 was not returned to mpool ucp_requests
[1703434110.323172] [gra308:4292 :0]          mpool.c:42   UCX  WARN  object 0xc40b580 was not returned to mpool ucp_requests
[1703434110.323285] [gra308:4292 :0]          mpool.c:42   UCX  WARN  object 0xc40b740 was not returned to mpool ucp_requests
[1703434110.323401] [gra308:4292 :0]          mpool.c:42   UCX  WARN  object 0xc40b900 was not returned to mpool ucp_requests
[1703434110.323514] [gra308:4292 :0]          mpool.c:42   UCX  WARN  object 0xc40bac0 was not returned to mpool ucp_requests
[1703434110.323627] [gra308:4292 :0]          mpool.c:42   UCX  WARN  object 0xc40bc80 was not returned to mpool ucp_requests
[1703434110.323758] [gra308:4292 :0]          mpool.c:42   UCX  WARN  object 0xc40be40 was not returned to mpool ucp_requests
[1703434110.323871] [gra308:4292 :0]          mpool.c:42   UCX  WARN  object 0xc40c000 was not returned to mpool ucp_requests
[1703434110.323984] [gra308:4292 :0]          mpool.c:42   UCX  WARN  object 0xc40c1c0 was not returned to mpool ucp_requests
[1703434110.327082] [gra308:4288 :0]          mpool.c:42   UCX  WARN  object 0xb762dc0 was not returned to mpool ucp_requests
[1703434110.327117] [gra308:4288 :0]          mpool.c:42   UCX  WARN  object 0xb762f80 was not returned to mpool ucp_requests
[1703434110.327131] [gra308:4288 :0]          mpool.c:42   UCX  WARN  object 0xb763140 was not returned to mpool ucp_requests
[1703434110.327165] [gra308:4288 :0]          mpool.c:42   UCX  WARN  object 0xb763300 was not returned to mpool ucp_requests
[1703434110.327178] [gra308:4288 :0]          mpool.c:42   UCX  WARN  object 0xb7634c0 was not returned to mpool ucp_requests
[1703434110.327209] [gra308:4288 :0]          mpool.c:42   UCX  WARN  object 0xb763680 was not returned to mpool ucp_requests
[1703434110.327222] [gra308:4288 :0]          mpool.c:42   UCX  WARN  object 0xb763840 was not returned to mpool ucp_requests
[1703434110.327232] [gra308:4288 :0]          mpool.c:42   UCX  WARN  object 0xb763a00 was not returned to mpool ucp_requests
[1703434110.327243] [gra308:4288 :0]          mpool.c:42   UCX  WARN  object 0xb763bc0 was not returned to mpool ucp_requests
[1703434110.327253] [gra308:4288 :0]          mpool.c:42   UCX  WARN  object 0xb763d80 was not returned to mpool ucp_requests
[1703434110.327263] [gra308:4288 :0]          mpool.c:42   UCX  WARN  object 0xb763f40 was not returned to mpool ucp_requests
[1703434110.327273] [gra308:4288 :0]          mpool.c:42   UCX  WARN  object 0xb764100 was not returned to mpool ucp_requests
[1703434110.333008] [gra308:4286 :0]          mpool.c:42   UCX  WARN  object 0xb85afc0 was not returned to mpool ucp_requests
[1703434110.333040] [gra308:4286 :0]          mpool.c:42   UCX  WARN  object 0xb85b180 was not returned to mpool ucp_requests
[1703434110.333053] [gra308:4286 :0]          mpool.c:42   UCX  WARN  object 0xb85b340 was not returned to mpool ucp_requests
[1703434110.333064] [gra308:4286 :0]          mpool.c:42   UCX  WARN  object 0xb85b500 was not returned to mpool ucp_requests
[1703434110.333089] [gra308:4286 :0]          mpool.c:42   UCX  WARN  object 0xb85b6c0 was not returned to mpool ucp_requests
[1703434110.333113] [gra308:4286 :0]          mpool.c:42   UCX  WARN  object 0xb85b880 was not returned to mpool ucp_requests
[1703434110.333124] [gra308:4286 :0]          mpool.c:42   UCX  WARN  object 0xb85ba40 was not returned to mpool ucp_requests
[1703434110.333133] [gra308:4286 :0]          mpool.c:42   UCX  WARN  object 0xb85bc00 was not returned to mpool ucp_requests
[1703434110.333143] [gra308:4286 :0]          mpool.c:42   UCX  WARN  object 0xb85bdc0 was not returned to mpool ucp_requests
[1703434110.333152] [gra308:4286 :0]          mpool.c:42   UCX  WARN  object 0xb85bf80 was not returned to mpool ucp_requests
[1703434110.333162] [gra308:4286 :0]          mpool.c:42   UCX  WARN  object 0xb85c140 was not returned to mpool ucp_requests
[1703434110.333761] [gra308:4298 :0]          mpool.c:42   UCX  WARN  object 0xb96de80 was not returned to mpool ucp_requests
[1703434110.333794] [gra308:4298 :0]          mpool.c:42   UCX  WARN  object 0xb96e040 was not returned to mpool ucp_requests
[1703434110.333813] [gra308:4298 :0]          mpool.c:42   UCX  WARN  object 0xb96e200 was not returned to mpool ucp_requests
[1703434110.333825] [gra308:4298 :0]          mpool.c:42   UCX  WARN  object 0xb96e3c0 was not returned to mpool ucp_requests
[1703434110.333835] [gra308:4298 :0]          mpool.c:42   UCX  WARN  object 0xb96e580 was not returned to mpool ucp_requests
[1703434110.333850] [gra308:4298 :0]          mpool.c:42   UCX  WARN  object 0xb96e740 was not returned to mpool ucp_requests
[1703434110.333860] [gra308:4298 :0]          mpool.c:42   UCX  WARN  object 0xb96e900 was not returned to mpool ucp_requests
[1703434110.333870] [gra308:4298 :0]          mpool.c:42   UCX  WARN  object 0xb96eac0 was not returned to mpool ucp_requests
[1703434110.333879] [gra308:4298 :0]          mpool.c:42   UCX  WARN  object 0xb96ec80 was not returned to mpool ucp_requests
[1703434110.333889] [gra308:4298 :0]          mpool.c:42   UCX  WARN  object 0xb96ee40 was not returned to mpool ucp_requests
[1703434110.333899] [gra308:4298 :0]          mpool.c:42   UCX  WARN  object 0xb96f000 was not returned to mpool ucp_requests
[1703434110.333909] [gra308:4298 :0]          mpool.c:42   UCX  WARN  object 0xb96f1c0 was not returned to mpool ucp_requests
[1703434110.341474] [gra308:4294 :0]          mpool.c:42   UCX  WARN  object 0xb609c00 was not returned to mpool ucp_requests
[1703434110.341507] [gra308:4294 :0]          mpool.c:42   UCX  WARN  object 0xb609dc0 was not returned to mpool ucp_requests
[1703434110.341532] [gra308:4294 :0]          mpool.c:42   UCX  WARN  object 0xb609f80 was not returned to mpool ucp_requests
[1703434110.341543] [gra308:4294 :0]          mpool.c:42   UCX  WARN  object 0xb60a140 was not returned to mpool ucp_requests
[1703434110.341554] [gra308:4294 :0]          mpool.c:42   UCX  WARN  object 0xb60a300 was not returned to mpool ucp_requests
[1703434110.341574] [gra308:4294 :0]          mpool.c:42   UCX  WARN  object 0xb60a4c0 was not returned to mpool ucp_requests
[1703434110.341584] [gra308:4294 :0]          mpool.c:42   UCX  WARN  object 0xb60a680 was not returned to mpool ucp_requests
[1703434110.341594] [gra308:4294 :0]          mpool.c:42   UCX  WARN  object 0xb60a840 was not returned to mpool ucp_requests
[1703434110.341603] [gra308:4294 :0]          mpool.c:42   UCX  WARN  object 0xb60aa00 was not returned to mpool ucp_requests
[1703434110.341613] [gra308:4294 :0]          mpool.c:42   UCX  WARN  object 0xb60abc0 was not returned to mpool ucp_requests
[1703434110.341623] [gra308:4294 :0]          mpool.c:42   UCX  WARN  object 0xb60ad80 was not returned to mpool ucp_requests
[1703434110.341632] [gra308:4294 :0]          mpool.c:42   UCX  WARN  object 0xb60af40 was not returned to mpool ucp_requests


           ************************************************************
           *        Program running with 8 parallel MPI-processes     *
           *              working on a common directory               *
           ************************************************************
-------------------------------------------------------------------------------
                                 ORCA SCF
-------------------------------------------------------------------------------

------------
SCF SETTINGS
------------
Hamiltonian:
 Density Functional     Method          .... DFT(GTOs)
 Exchange Functional    Exchange        .... WB97X-V
 Correlation Functional Correlation     .... WB97X-V
 Gradients option       PostSCFGGA      .... off
 Hybrid DFT is turned on
   Fraction HF Exchange ScalHFX         ....  0.167000
   Scaling of DF-GGA-X  ScalDFX         ....  0.000000
   Scaling of DF-GGA-C  ScalDFC         ....  1.000000
   Scaling of DF-LDA-C  ScalLDAC        ....  1.000000
   Perturbative correction              ....  0.000000
   Density functional embedding theory  .... OFF
 Long-range corrected/Screened/Range-Separated Hybrid DFT is turned on
   Amount of maximum screened exact exchange              ....  0.833000
   Range separation parameter mu (erf(mu*r12)/r12)        ....  0.300000
 RI-approximation to the Coulomb term is turned on
   Number of AuxJ basis functions       .... 1544
   RIJ-COSX (HFX calculated with COS-X)).... on


General Settings:
 Integral files         IntName         .... Fentanyl_OProt_47
 Hartree-Fock type      HFTyp           .... RHF
 Total Charge           Charge          ....    1
 Multiplicity           Mult            ....    1
 Number of Electrons    NEL             ....  182
 Basis Dimension        Dim             ....  949
 Nuclear Repulsion      ENuc            ....   2124.7711927090 Eh

Convergence Acceleration:
 DIIS                   CNVDIIS         .... on
   Start iteration      DIISMaxIt       ....    12
   Startup error        DIISStart       ....  0.200000
   # of expansion vecs  DIISMaxEq       ....     5
   Bias factor          DIISBfac        ....   1.050
   Max. coefficient     DIISMaxC        ....  10.000
 Trust-Rad. Augm. Hess. CNVTRAH         .... auto
   Auto Start mean grad. ratio tolernc. ....  1.125000
   Auto Start start iteration           ....    20
   Auto Start num. interpolation iter.  ....    10
   Max. Number of Micro iterations      ....    16
   Max. Number of Macro iterations      .... Maxiter - #DIIS iter
   Number of Davidson start vectors     ....     2
   Converg. threshold I  (grad. norm)   ....   1.000e-05
   Converg. threshold II (energy diff.) ....   1.000e-08
   Grad. Scal. Fac. for Micro threshold ....   0.100
   Minimum threshold for Micro iter.    ....   0.010
   NR start threshold (gradient norm)   ....   0.001
   Initial trust radius                 ....   0.400
   Minimum AH scaling param. (alpha)    ....   1.000
   Maximum AH scaling param. (alpha)    .... 1000.000
   Orbital update algorithm             .... Taylor
   White noise on init. David. guess    .... on
   Maximum white noise                  ....   0.010
   Quad. conv. algorithm                .... NR
 SOSCF                  CNVSOSCF        .... on
   Start iteration      SOSCFMaxIt      ....   150
   Startup grad/error   SOSCFStart      ....  0.003300
 Level Shifting         CNVShift        .... on
   Level shift para.    LevelShift      ....    0.2500
   Turn off err/grad.   ShiftErr        ....    0.0010
 Zerner damping         CNVZerner       .... off
 Static damping         CNVDamp         .... on
   Fraction old density DampFac         ....    0.7000
   Max. Damping (<1)    DampMax         ....    0.9800
   Min. Damping (>=0)   DampMin         ....    0.0000
   Turn off err/grad.   DampErr         ....    0.1000
 Fernandez-Rico         CNVRico         .... off

SCF Procedure:
 Maximum # iterations   MaxIter         ....   125
 SCF integral mode      SCFMode         .... Direct
   Integral package                     .... SHARK and LIBINT hybrid scheme
 Reset frequency        DirectResetFreq ....    20
 Integral Threshold     Thresh          ....  2.500e-11 Eh
 Primitive CutOff       TCut            ....  2.500e-12 Eh

Convergence Tolerance:
 Convergence Check Mode ConvCheckMode   .... Total+1el-Energy
 Convergence forced     ConvForced      .... 0
 Energy Change          TolE            ....  1.000e-08 Eh
 1-El. energy change                    ....  1.000e-05 Eh
 Orbital Gradient       TolG            ....  1.000e-05
 Orbital Rotation angle TolX            ....  1.000e-05
 DIIS Error             TolErr          ....  5.000e-07


Diagonalization of the overlap matrix:
Smallest eigenvalue                        ... 6.362e-06
Time for diagonalization                   ...    0.304 sec
Threshold for overlap eigenvalues          ... 1.000e-08
Number of eigenvalues below threshold      ... 0
Time for construction of square roots      ...    0.181 sec
Total time needed                          ...    0.494 sec

Time for model grid setup =    0.490 sec

------------------------------
INITIAL GUESS: MODEL POTENTIAL
------------------------------
Loading Hartree-Fock densities                     ... done
Calculating cut-offs                               ... done
Initializing the effective Hamiltonian             ... done
Setting up the integral package (SHARK)            ... done
Starting the Coulomb interaction                   ... done (   1.2 sec)
Reading the grid                                   ... done
Mapping shells                                     ... done
Starting the XC term evaluation                    ... done (   0.5 sec)
  promolecular density results
     # of electrons  =    183.010576984
     EX              =    -95.411543854
     EC              =     -7.502081407
     EX+EC           =   -102.913625261
Transforming the Hamiltonian                       ... done (   0.2 sec)
Diagonalizing the Hamiltonian                      ... done (   0.3 sec)
Back transforming the eigenvectors                 ... done (   0.1 sec)
Now organizing SCF variables                       ... done
                      ------------------
                      INITIAL GUESS DONE (   2.7 sec)
                      ------------------
-------------------
DFT GRID GENERATION
-------------------

General Integration Accuracy     IntAcc      ... 4.959
Radial Grid Type                 RadialGrid  ... OptM3 with GC (2021)
Angular Grid (max. ang.)         AngularGrid ... 6 (Lebedev-590)
Angular grid pruning method      GridPruning ... 4 (adaptive)
Weight generation scheme         WeightScheme... Becke
Basis function cutoff            BFCut       ... 1.0000e-11
Integration weight cutoff        WCut        ... 1.0000e-14
Angular grids for H and He will be reduced by one unit
Partially contracted basis set               ... off
Rotationally invariant grid construction     ... off

Total number of grid points                  ...   597340
Total number of batches                      ...     9363
Average number of points per batch           ...       63
Average number of grid points per atom       ...    11062
Time for grid setup =    8.333 sec

--------------------
COSX GRID GENERATION
--------------------

GRIDX 1
-------
General Integration Accuracy     IntAcc      ... 4.020
Radial Grid Type                 RadialGrid  ... OptM3 with GC (2021)
Angular Grid (max. ang.)         AngularGrid ... 2 (Lebedev-110)
Angular grid pruning method      GridPruning ... 4 (adaptive)
Weight generation scheme         WeightScheme... Becke
Basis function cutoff            BFCut       ... 1.0000e-11
Integration weight cutoff        WCut        ... 1.0000e-14
Angular grids for H and He will be reduced by one unit
Partially contracted basis set               ... on
Rotationally invariant grid construction     ... off

Total number of grid points                  ...    64606
Total number of batches                      ...     1034
Average number of points per batch           ...       62
Average number of grid points per atom       ...     1196
UseSFitting                                  ... on

GRIDX 2
-------
General Integration Accuracy     IntAcc      ... 4.338
Radial Grid Type                 RadialGrid  ... OptM3 with GC (2021)
Angular Grid (max. ang.)         AngularGrid ... 3 (Lebedev-194)
Angular grid pruning method      GridPruning ... 4 (adaptive)
Weight generation scheme         WeightScheme... Becke
Basis function cutoff            BFCut       ... 1.0000e-11
Integration weight cutoff        WCut        ... 1.0000e-14
Angular grids for H and He will be reduced by one unit
Partially contracted basis set               ... on
Rotationally invariant grid construction     ... off

Total number of grid points                  ...   140337
Total number of batches                      ...     2220
Average number of points per batch           ...       63
Average number of grid points per atom       ...     2599
UseSFitting                                  ... on

GRIDX 3
-------
General Integration Accuracy     IntAcc      ... 4.871
Radial Grid Type                 RadialGrid  ... OptM3 with GC (2021)
Angular Grid (max. ang.)         AngularGrid ... 4 (Lebedev-302)
Angular grid pruning method      GridPruning ... 4 (adaptive)
Weight generation scheme         WeightScheme... Becke
[...]
 71:   1043.08   0.004032   20.38  0.001206  (-0.028348  0.019991  0.001728)
 72:   1046.91   0.000131    0.66  0.000039  (-0.001785  0.005998  0.000111)
 73:   1047.61   0.000832    4.20  0.000248  (-0.001355 -0.013172  0.008509)
 74:   1047.87   0.000860    4.35  0.000256  (-0.000933 -0.010487 -0.012055)
 75:   1063.88   0.001408    7.12  0.000413  (-0.016414 -0.011986 -0.000244)
 76:   1068.82   0.000685    3.46  0.000200  (-0.013932 -0.002379  0.000337)
 77:   1078.20   0.013827   69.88  0.004002  (-0.062723 -0.008124  0.001377)
 78:   1116.22   0.003071   15.52  0.000859  ( 0.027816  0.009215  0.000178)
 79:   1117.55   0.001009    5.10  0.000282  ( 0.000256 -0.001042  0.016755)
 80:   1118.28   0.000622    3.15  0.000174  (-0.000070 -0.001134  0.013130)
 81:   1119.78   0.000078    0.39  0.000022  (-0.000224  0.000212 -0.004637)
 82:   1148.32   0.000000    0.00  0.000000  ( 0.000082 -0.000055  0.000067)
 83:   1154.44   0.004738   23.95  0.001281  (-0.034942 -0.007687  0.000895)
 84:   1167.70   0.003700   18.70  0.000989  ( 0.001037 -0.001962  0.031367)
 85:   1184.26   0.000632    3.19  0.000166  ( 0.000426 -0.000822  0.012867)
 86:   1189.62   0.000136    0.69  0.000036  (-0.000211  0.000394 -0.005953)
 87:   1194.22   0.007084   35.80  0.001851  ( 0.041633 -0.010674 -0.002004)
 88:   1198.32   0.000106    0.54  0.000028  (-0.000818  0.000496 -0.005168)
 89:   1206.25   0.000507    2.56  0.000131  (-0.006032  0.009707  0.000743)
 90:   1211.04   0.000029    0.15  0.000008  (-0.002159 -0.001713 -0.000017)
 91:   1236.85   0.009434   47.68  0.002380  ( 0.001446 -0.048683 -0.002855)
 92:   1248.98   0.000151    0.76  0.000038  (-0.005608  0.002466  0.000355)
 93:   1252.59   0.000084    0.42  0.000021  (-0.000048  0.000127 -0.004573)
 94:   1279.96   0.009648   48.76  0.002352  (-0.025496  0.041136  0.003178)
 95:   1299.29   0.001058    5.35  0.000254  ( 0.000549 -0.000957  0.015903)
 96:   1303.95   0.000440    2.22  0.000105  (-0.000586  0.001181 -0.010171)
 97:   1314.63   0.000474    2.39  0.000112  (-0.007190 -0.007770 -0.000637)
 98:   1315.92   0.000373    1.88  0.000088  ( 0.000023 -0.000646  0.009382)
 99:   1326.65   0.000185    0.94  0.000044  ( 0.006084  0.002559 -0.000197)
100:   1329.82   0.000075    0.38  0.000018  (-0.000521  0.000152 -0.004150)
101:   1343.91   0.000007    0.04  0.000002  (-0.000331  0.000016 -0.001268)
102:   1347.28   0.006784   34.28  0.001571  (-0.038792 -0.008143  0.000476)
103:   1360.98   0.000189    0.95  0.000043  ( 0.000243 -0.000413  0.006560)
104:   1369.59   0.003174   16.04  0.000723  ( 0.026009 -0.006705 -0.001374)
105:   1370.91   0.000179    0.90  0.000041  ( 0.000277 -0.000464  0.006354)
106:   1381.45   0.002869   14.50  0.000648  (-0.000303  0.001758 -0.025395)
107:   1385.86   0.000689    3.48  0.000155  (-0.012032 -0.003207 -0.000278)
108:   1400.27   0.000052    0.26  0.000011  (-0.000166  0.000259 -0.003375)
109:   1403.79   0.000211    1.07  0.000047  (-0.000451  0.000390 -0.006820)
110:   1413.24   0.009897   50.01  0.002185  ( 0.046716  0.000950 -0.001400)
111:   1429.23   0.015715   79.42  0.003431  (-0.006624  0.058064  0.004000)
112:   1443.31   0.008302   41.95  0.001795  (-0.039906 -0.014227  0.000371)
113:   1447.16   0.010670   53.92  0.002301  (-0.030162  0.037174  0.003049)
114:   1455.04   0.006056   30.61  0.001299  ( 0.015892 -0.032257 -0.002424)
115:   1484.26   0.015583   78.75  0.003276  (-0.021797  0.052787  0.003836)
116:   1489.95   0.000045    0.23  0.000009  (-0.000050  0.000074 -0.003060)
117:   1492.01   0.000615    3.11  0.000129  ( 0.007032  0.008885  0.000365)
118:   1507.01   0.003364   17.00  0.000697  (-0.015576  0.021247  0.001590)
119:   1508.69   0.000421    2.13  0.000087  (-0.000286 -0.000045  0.009322)
120:   1509.95   0.000645    3.26  0.000133  (-0.011498  0.001020  0.000238)
121:   1510.38   0.002249   11.37  0.000465  (-0.000567  0.001235 -0.021514)
122:   1510.87   0.000006    0.03  0.000001  ( 0.000127  0.000131 -0.001059)
123:   1517.69   0.003004   15.18  0.000618  (-0.007212  0.005393 -0.023166)
124:   1519.33   0.005412   27.35  0.001112  (-0.029561  0.013753  0.006972)
125:   1524.84   0.001967    9.94  0.000402  (-0.020004 -0.001452  0.000442)
126:   1553.32   0.005975   30.20  0.001200  ( 0.017827 -0.029614 -0.002370)
127:   1555.11   0.003372   17.04  0.000677  ( 0.025634  0.004391 -0.000593)
128:   1673.49   0.000335    1.69  0.000062  ( 0.000224 -0.000473  0.007883)
129:   1680.22   0.000867    4.38  0.000161  ( 0.000424 -0.000669  0.012663)
130:   1682.22   0.003405   17.21  0.000632  ( 0.010355  0.022875  0.001077)
131:   1695.11   0.001994   10.08  0.000367  ( 0.019140  0.000610 -0.000587)
132:   1732.67   0.077792  393.13  0.014011  ( 0.082326  0.085001  0.002840)
133:   2957.19   0.002924   14.78  0.000309  ( 0.000690 -0.001978  0.017440)
134:   2961.37   0.015711   79.40  0.001656  ( 0.009720 -0.039385 -0.003163)
135:   3059.43   0.001343    6.79  0.000137  ( 0.003960 -0.010991 -0.000697)
136:   3065.90   0.000216    1.09  0.000022  (-0.003599 -0.003004 -0.000133)
137:   3073.55   0.009759   49.32  0.000991  ( 0.022264  0.022244  0.000629)
138:   3075.40   0.003023   15.28  0.000307  (-0.000895  0.001175 -0.017451)
139:   3076.95   0.004917   24.85  0.000499  (-0.022104  0.002967  0.001121)
140:   3099.98   0.001495    7.55  0.000150  ( 0.010564  0.006235 -0.000135)
141:   3103.11   0.000098    0.50  0.000010  (-0.000200  0.000115 -0.003132)
142:   3115.21   0.003226   16.30  0.000323  (-0.000464  0.001165 -0.017932)
143:   3117.83   0.001313    6.63  0.000131  ( 0.009063  0.007018  0.000139)
144:   3122.35   0.001153    5.83  0.000115  (-0.000612  0.000679 -0.010696)
145:   3126.06   0.006044   30.55  0.000603  ( 0.000885 -0.001505  0.024502)
146:   3133.87   0.003231   16.33  0.000322  (-0.005603 -0.017026 -0.000654)
147:   3136.51   0.000895    4.52  0.000089  (-0.000436  0.000162 -0.009427)
148:   3143.38   0.000192    0.97  0.000019  (-0.000126  0.000318 -0.004350)
149:   3161.63   0.001630    8.24  0.000161  ( 0.004910 -0.011657 -0.000916)
150:   3167.10   0.000174    0.88  0.000017  (-0.003332  0.002439  0.000371)
151:   3181.47   0.001731    8.75  0.000170  (-0.000881 -0.001045  0.012957)
152:   3181.72   0.002587   13.08  0.000254  ( 0.015606  0.003103  0.000777)
153:   3202.54   0.000304    1.54  0.000030  (-0.005150 -0.001757  0.000023)
154:   3210.74   0.000297    1.50  0.000029  (-0.002554  0.004710  0.000390)
155:   3212.00   0.003683   18.61  0.000358  ( 0.000610 -0.001140  0.018871)
156:   3213.82   0.000011    0.06  0.000001  (-0.000072  0.000115 -0.001047)
157:   3221.02   0.000543    2.74  0.000053  ( 0.003205 -0.006491 -0.000471)
158:   3225.08   0.002068   10.45  0.000200  (-0.013978 -0.002141  0.000317)
159:   3229.69   0.000168    0.85  0.000016  (-0.000086  0.000208 -0.004018)
160:   3237.53   0.000048    0.24  0.000005  ( 0.000876 -0.001956 -0.000134)
161:   3783.10   0.058159  293.91  0.004797  (-0.044641 -0.052919 -0.002073)

* The epsilon (eps) is given for a Dirac delta lineshape.
** The dipole moment derivative (T) already includes vibrational overlap.

The first frequency considered to be a vibration is 7
The total number of vibrations considered is 155


--------------------------
THERMOCHEMISTRY AT 298.15K
--------------------------

Temperature         ... 298.15 K
Pressure            ... 1.00 atm
Total Mass          ... 337.49 AMU

Throughout the following assumptions are being made:
  (1) The electronic state is orbitally nondegenerate
  (2) There are no thermally accessible electronically excited states
  (3) Hindered rotations indicated by low frequency modes are not
      treated as such but are treated as vibrations and this may
      cause some error
  (4) All equations used are the standard statistical mechanics
      equations for an ideal gas
  (5) All vibrations are strictly harmonic

freq.      22.67  E(vib)   ...       0.56 
freq.      23.14  E(vib)   ...       0.56 
freq.      25.43  E(vib)   ...       0.56 
freq.      35.79  E(vib)   ...       0.54 
freq.      64.51  E(vib)   ...       0.51 
freq.      66.51  E(vib)   ...       0.50 
freq.      71.03  E(vib)   ...       0.50 
freq.      80.30  E(vib)   ...       0.49 
freq.      97.34  E(vib)   ...       0.46 
freq.     121.02  E(vib)   ...       0.44 
freq.     121.22  E(vib)   ...       0.44 
freq.     162.94  E(vib)   ...       0.39 
freq.     230.30  E(vib)   ...       0.32 
freq.     236.44  E(vib)   ...       0.32 
freq.     262.82  E(vib)   ...       0.29 
freq.     269.72  E(vib)   ...       0.29 
freq.     278.64  E(vib)   ...       0.28 
freq.     288.85  E(vib)   ...       0.27 
freq.     316.06  E(vib)   ...       0.25 
freq.     322.24  E(vib)   ...       0.25 
freq.     337.49  E(vib)   ...       0.24 
freq.     391.53  E(vib)   ...       0.20 
freq.     395.98  E(vib)   ...       0.20 
freq.     414.85  E(vib)   ...       0.19 
freq.     417.87  E(vib)   ...       0.18 
freq.     425.52  E(vib)   ...       0.18 
freq.     469.85  E(vib)   ...       0.16 
freq.     471.35  E(vib)   ...       0.15 
freq.     504.06  E(vib)   ...       0.14 
freq.     506.37  E(vib)   ...       0.14 
freq.     518.18  E(vib)   ...       0.13 
freq.     543.16  E(vib)   ...       0.12 
freq.     559.65  E(vib)   ...       0.12 
freq.     622.65  E(vib)   ...       0.09 
freq.     627.51  E(vib)   ...       0.09 
freq.     639.05  E(vib)   ...       0.09 
freq.     639.24  E(vib)   ...       0.09 
freq.     662.76  E(vib)   ...       0.08 
freq.     683.86  E(vib)   ...       0.07 
freq.     725.53  E(vib)   ...       0.06 
freq.     730.29  E(vib)   ...       0.06 
freq.     761.09  E(vib)   ...       0.06 
freq.     777.49  E(vib)   ...       0.05 
freq.     777.74  E(vib)   ...       0.05 
freq.     807.35  E(vib)   ...       0.05 
freq.     811.31  E(vib)   ...       0.05 
freq.     812.77  E(vib)   ...       0.05 
freq.     848.78  E(vib)   ...       0.04 
freq.     859.14  E(vib)   ...       0.04 
freq.     872.71  E(vib)   ...       0.04 
freq.     876.28  E(vib)   ...       0.04 
freq.     880.80  E(vib)   ...       0.04 
freq.     941.43  E(vib)   ...       0.03 
freq.     946.46  E(vib)   ...       0.03 
freq.     958.78  E(vib)   ...       0.03 
freq.     972.48  E(vib)   ...       0.03 
freq.    1000.13  E(vib)   ...       0.02 
freq.    1007.65  E(vib)   ...       0.02 
freq.    1011.99  E(vib)   ...       0.02 
freq.    1018.48  E(vib)   ...       0.02 
freq.    1023.59  E(vib)   ...       0.02 
freq.    1027.37  E(vib)   ...       0.02 
freq.    1033.05  E(vib)   ...       0.02 
freq.    1036.41  E(vib)   ...       0.02 
freq.    1043.08  E(vib)   ...       0.02 
freq.    1046.91  E(vib)   ...       0.02 
freq.    1047.61  E(vib)   ...       0.02 
freq.    1047.87  E(vib)   ...       0.02 
freq.    1063.88  E(vib)   ...       0.02 
freq.    1068.82  E(vib)   ...       0.02 
freq.    1078.20  E(vib)   ...       0.02 
freq.    1116.22  E(vib)   ...       0.01 
freq.    1117.55  E(vib)   ...       0.01 
freq.    1118.28  E(vib)   ...       0.01 
freq.    1119.78  E(vib)   ...       0.01 
freq.    1148.32  E(vib)   ...       0.01 
freq.    1154.44  E(vib)   ...       0.01 
freq.    1167.70  E(vib)   ...       0.01 
freq.    1184.26  E(vib)   ...       0.01 
freq.    1189.62  E(vib)   ...       0.01 
freq.    1194.22  E(vib)   ...       0.01 
freq.    1198.32  E(vib)   ...       0.01 
freq.    1206.25  E(vib)   ...       0.01 
freq.    1211.04  E(vib)   ...       0.01 
freq.    1236.85  E(vib)   ...       0.01 
freq.    1248.98  E(vib)   ...       0.01 
freq.    1252.59  E(vib)   ...       0.01 
freq.    1279.96  E(vib)   ...       0.01 
freq.    1299.29  E(vib)   ...       0.01 
freq.    1303.95  E(vib)   ...       0.01 
freq.    1314.63  E(vib)   ...       0.01 
freq.    1315.92  E(vib)   ...       0.01 
freq.    1326.65  E(vib)   ...       0.01 
freq.    1329.82  E(vib)   ...       0.01 
freq.    1343.91  E(vib)   ...       0.01 
freq.    1347.28  E(vib)   ...       0.01 
freq.    1360.98  E(vib)   ...       0.01 
freq.    1369.59  E(vib)   ...       0.01 
freq.    1370.91  E(vib)   ...       0.01 
freq.    1381.45  E(vib)   ...       0.01 
freq.    1385.86  E(vib)   ...       0.00 
freq.    1400.27  E(vib)   ...       0.00 
freq.    1403.79  E(vib)   ...       0.00 
freq.    1413.24  E(vib)   ...       0.00 
freq.    1429.23  E(vib)   ...       0.00 
freq.    1443.31  E(vib)   ...       0.00 
freq.    1447.16  E(vib)   ...       0.00 
freq.    1455.04  E(vib)   ...       0.00 
freq.    1484.26  E(vib)   ...       0.00 
freq.    1489.95  E(vib)   ...       0.00 
freq.    1492.01  E(vib)   ...       0.00 
freq.    1507.01  E(vib)   ...       0.00 
freq.    1508.69  E(vib)   ...       0.00 
freq.    1509.95  E(vib)   ...       0.00 
freq.    1510.38  E(vib)   ...       0.00 
freq.    1510.87  E(vib)   ...       0.00 
freq.    1517.69  E(vib)   ...       0.00 
freq.    1519.33  E(vib)   ...       0.00 
freq.    1524.84  E(vib)   ...       0.00 
freq.    1553.32  E(vib)   ...       0.00 
freq.    1555.11  E(vib)   ...       0.00 
freq.    1673.49  E(vib)   ...       0.00 
freq.    1680.22  E(vib)   ...       0.00 
freq.    1682.22  E(vib)   ...       0.00 
freq.    1695.11  E(vib)   ...       0.00 
freq.    1732.67  E(vib)   ...       0.00 
freq.    2957.19  E(vib)   ...       0.00 
freq.    2961.37  E(vib)   ...       0.00 
freq.    3059.43  E(vib)   ...       0.00 
freq.    3065.90  E(vib)   ...       0.00 
freq.    3073.55  E(vib)   ...       0.00 
freq.    3075.40  E(vib)   ...       0.00 
freq.    3076.95  E(vib)   ...       0.00 
freq.    3099.98  E(vib)   ...       0.00 
freq.    3103.11  E(vib)   ...       0.00 
freq.    3115.21  E(vib)   ...       0.00 
freq.    3117.83  E(vib)   ...       0.00 
freq.    3122.35  E(vib)   ...       0.00 
freq.    3126.06  E(vib)   ...       0.00 
freq.    3133.87  E(vib)   ...       0.00 
freq.    3136.51  E(vib)   ...       0.00 
freq.    3143.38  E(vib)   ...       0.00 
freq.    3161.63  E(vib)   ...       0.00 
freq.    3167.10  E(vib)   ...       0.00 
freq.    3181.47  E(vib)   ...       0.00 
freq.    3181.72  E(vib)   ...       0.00 
freq.    3202.54  E(vib)   ...       0.00 
freq.    3210.74  E(vib)   ...       0.00 
freq.    3212.00  E(vib)   ...       0.00 
freq.    3213.82  E(vib)   ...       0.00 
freq.    3221.02  E(vib)   ...       0.00 
freq.    3225.08  E(vib)   ...       0.00 
freq.    3229.69  E(vib)   ...       0.00 
freq.    3237.53  E(vib)   ...       0.00 
freq.    3783.10  E(vib)   ...       0.00 

------------
INNER ENERGY
------------

The inner energy is: U= E(el) + E(ZPE) + E(vib) + E(rot) + E(trans)
    E(el)   - is the total energy from the electronic structure calculation
              = E(kin-el) + E(nuc-el) + E(el-el) + E(nuc-nuc)
    E(ZPE)  - the the zero temperature vibrational energy from the frequency calculation
    E(vib)  - the the finite temperature correction to E(ZPE) due to population
              of excited vibrational states
    E(rot)  - is the rotational thermal energy
    E(trans)- is the translational thermal energy

Summary of contributions to the inner energy U:
Electronic energy                ...  -1041.20705420 Eh
Zero point energy                ...      0.47880855 Eh     300.46 kcal/mol
Thermal vibrational correction   ...      0.01950875 Eh      12.24 kcal/mol
Thermal rotational correction    ...      0.00141627 Eh       0.89 kcal/mol
Thermal translational correction ...      0.00141627 Eh       0.89 kcal/mol
-----------------------------------------------------------------------
Total thermal energy                  -1040.70590436 Eh


Summary of corrections to the electronic energy:
(perhaps to be used in another calculation)
Total thermal correction                  0.02234129 Eh      14.02 kcal/mol
Non-thermal (ZPE) correction              0.47880855 Eh     300.46 kcal/mol
-----------------------------------------------------------------------
Total correction                          0.50114984 Eh     314.48 kcal/mol


--------
ENTHALPY
--------

The enthalpy is H = U + kB*T
                kB is Boltzmann's constant
Total free energy                 ...  -1040.70590436 Eh 
Thermal Enthalpy correction       ...      0.00094421 Eh       0.59 kcal/mol
-----------------------------------------------------------------------
Total Enthalpy                    ...  -1040.70496015 Eh


Note: Only C1 symmetry has been detected, increase convergence thresholds 
      if your molecule has a higher symmetry. Symmetry factor of 1.0 is   
      used for the rotational entropy correction. 
 

Note: Rotational entropy computed according to Herzberg 
Infrared and Raman Spectra, Chapter V,1, Van Nostrand Reinhold, 1945 
Point Group:  C1, Symmetry Number:   1  
Rotational constants in cm-1:     0.016289     0.002590     0.002414 

Vibrational entropy computed according to the QRRHO of S. Grimme
Chem.Eur.J. 2012 18 9955


-------
ENTROPY
-------

The entropy contributions are T*S = T*(S(el)+S(vib)+S(rot)+S(trans))
     S(el)   - electronic entropy
     S(vib)  - vibrational entropy
     S(rot)  - rotational entropy
     S(trans)- translational entropy
The entropies will be listed as multiplied by the temperature to get
units of energy

Electronic entropy                ...      0.00000000 Eh      0.00 kcal/mol
Vibrational entropy               ...      0.03460112 Eh     21.71 kcal/mol
Rotational entropy                ...      0.01711135 Eh     10.74 kcal/mol
Translational entropy             ...      0.02059393 Eh     12.92 kcal/mol
-----------------------------------------------------------------------
Final entropy term                ...      0.07230640 Eh     45.37 kcal/mol

In case the symmetry of your molecule has not been determined correctly
or in case you have a reason to use a different symmetry number we print 
out the resulting rotational entropy values for sn=1,12 :
 --------------------------------------------------------
|  sn= 1 | S(rot)=       0.01711135 Eh     10.74 kcal/mol|
|  sn= 2 | S(rot)=       0.01645689 Eh     10.33 kcal/mol|
|  sn= 3 | S(rot)=       0.01607406 Eh     10.09 kcal/mol|
|  sn= 4 | S(rot)=       0.01580244 Eh      9.92 kcal/mol|
|  sn= 5 | S(rot)=       0.01559175 Eh      9.78 kcal/mol|
|  sn= 6 | S(rot)=       0.01541960 Eh      9.68 kcal/mol|
|  sn= 7 | S(rot)=       0.01527406 Eh      9.58 kcal/mol|
|  sn= 8 | S(rot)=       0.01514798 Eh      9.51 kcal/mol|
|  sn= 9 | S(rot)=       0.01503677 Eh      9.44 kcal/mol|
|  sn=10 | S(rot)=       0.01493729 Eh      9.37 kcal/mol|
|  sn=11 | S(rot)=       0.01484730 Eh      9.32 kcal/mol|
|  sn=12 | S(rot)=       0.01476515 Eh      9.27 kcal/mol|
 --------------------------------------------------------


-------------------
GIBBS FREE ENERGY
-------------------

The Gibbs free energy is G = H - T*S

Total enthalpy                    ...  -1040.70496015 Eh 
Total entropy correction          ...     -0.07230640 Eh    -45.37 kcal/mol
-----------------------------------------------------------------------
Final Gibbs free energy         ...  -1040.77726655 Eh

For completeness - the Gibbs free energy minus the electronic energy
G-E(el)                           ...      0.42978765 Eh    269.70 kcal/mol


Timings for individual modules:

Sum of individual times         ...    21674.871 sec (= 361.248 min)
GTO integral calculation        ...       22.133 sec (=   0.369 min)   0.1 %
SCF iterations                  ...     6165.507 sec (= 102.758 min)  28.4 %
SCF Gradient evaluation         ...     1635.482 sec (=  27.258 min)   7.5 %
Geometry relaxation             ...        2.454 sec (=   0.041 min)   0.0 %
Analytical frequency calculation...    11286.098 sec (= 188.102 min)  52.1 %
CHELPG charge generation        ...     2563.196 sec (=  42.720 min)  11.8 %
                             ****ORCA TERMINATED NORMALLY****
TOTAL RUN TIME: 0 days 6 hours 1 minutes 26 seconds 193 msec
