
Lmod is automatically replacing "intel/2020.1.217" with "gcc/10.3.0".


The following have been reloaded with a version change:
  1) gcccore/.9.3.0 => gcccore/.10.3.0        3) openmpi/4.0.3 => openmpi/4.1.1
  2) libfabric/1.10.1 => libfabric/1.12.1     4) ucx/1.8.0 => ucx/1.9.0

To execute ORCA, run: 
   ${EBROOTORCA}/orca orca.inp > orca.out
cp: cannot stat '/project/6006388/cieritan/Fentanyl_analogs/Fentanyl/O-Prot/CCSDT/*.hess': No such file or directory
cp: cannot stat '/project/6006388/cieritan/Fentanyl_analogs/Fentanyl/O-Prot/CCSDT/*.gbw': No such file or directory

                                 *****************
                                 * O   R   C   A *
                                 *****************

                                            #,                                       
                                            ###                                      
                                            ####                                     
                                            #####                                    
                                            ######                                   
                                           ########,                                 
                                     ,,################,,,,,                         
                               ,,#################################,,                 
                          ,,##########################################,,             
                       ,#########################################, ''#####,          
                    ,#############################################,,   '####,        
                  ,##################################################,,,,####,       
                ,###########''''           ''''###############################       
              ,#####''   ,,,,##########,,,,          '''####'''          '####       
            ,##' ,,,,###########################,,,                        '##       
           ' ,,###''''                  '''############,,,                           
         ,,##''                                '''############,,,,        ,,,,,,###''
      ,#''                                            '''#######################'''  
     '                                                          ''''####''''         
             ,#######,   #######,   ,#######,      ##                                
            ,#'     '#,  ##    ##  ,#'     '#,    #''#        ######   ,####,        
            ##       ##  ##   ,#'  ##            #'  '#       #        #'  '#        
            ##       ##  #######   ##           ,######,      #####,   #    #        
            '#,     ,#'  ##    ##  '#,     ,#' ,#      #,         ##   #,  ,#        
             '#######'   ##     ##  '#######'  #'      '#     #####' # '####'        



                  #######################################################
                  #                        -***-                        #
                  #          Department of theory and spectroscopy      #
                  #    Directorship and core code : Frank Neese         #
                  #        Max Planck Institute fuer Kohlenforschung    #
                  #                Kaiser Wilhelm Platz 1               #
                  #                 D-45470 Muelheim/Ruhr               #
                  #                      Germany                        #
                  #                                                     #
                  #                  All rights reserved                #
                  #                        -***-                        #
                  #######################################################


                         Program Version 5.0.4 -  RELEASE  -


 With contributions from (in alphabetic order):
   Daniel Aravena         : Magnetic Suceptibility
   Michael Atanasov       : Ab Initio Ligand Field Theory (pilot matlab implementation)
   Alexander A. Auer      : GIAO ZORA, VPT2 properties, NMR spectrum
   Ute Becker             : Parallelization
   Giovanni Bistoni       : ED, misc. LED, open-shell LED, HFLD
   Martin Brehm           : Molecular dynamics
   Dmytro Bykov           : SCF Hessian
   Vijay G. Chilkuri      : MRCI spin determinant printing, contributions to CSF-ICE
   Dipayan Datta          : RHF DLPNO-CCSD density
   Achintya Kumar Dutta   : EOM-CC, STEOM-CC
   Dmitry Ganyushin       : Spin-Orbit,Spin-Spin,Magnetic field MRCI
   Miquel Garcia          : C-PCM and meta-GGA Hessian, CC/C-PCM, Gaussian charge scheme
   Yang Guo               : DLPNO-NEVPT2, F12-NEVPT2, CIM, IAO-localization
   Andreas Hansen         : Spin unrestricted coupled pair/coupled cluster methods
   Benjamin Helmich-Paris : MC-RPA, TRAH-SCF, COSX integrals
   Lee Huntington         : MR-EOM, pCC
   Robert Izsak           : Overlap fitted RIJCOSX, COSX-SCS-MP3, EOM
   Marcus Kettner         : VPT2
   Christian Kollmar      : KDIIS, OOCD, Brueckner-CCSD(T), CCSD density, CASPT2, CASPT2-K
   Simone Kossmann        : Meta GGA functionals, TD-DFT gradient, OOMP2, MP2 Hessian
   Martin Krupicka        : Initial AUTO-CI
   Lucas Lang             : DCDCAS
   Marvin Lechner         : AUTO-CI (C++ implementation), FIC-MRCC
   Dagmar Lenk            : GEPOL surface, SMD
   Dimitrios Liakos       : Extrapolation schemes; Compound Job, initial MDCI parallelization
   Dimitrios Manganas     : Further ROCIS development; embedding schemes
   Dimitrios Pantazis     : SARC Basis sets
   Anastasios Papadopoulos: AUTO-CI, single reference methods and gradients
   Taras Petrenko         : DFT Hessian,TD-DFT gradient, ASA, ECA, R-Raman, ABS, FL, XAS/XES, NRVS
   Peter Pinski           : DLPNO-MP2, DLPNO-MP2 Gradient
   Christoph Reimann      : Effective Core Potentials
   Marius Retegan         : Local ZFS, SOC
   Christoph Riplinger    : Optimizer, TS searches, QM/MM, DLPNO-CCSD(T), (RO)-DLPNO pert. Triples
   Tobias Risthaus        : Range-separated hybrids, TD-DFT gradient, RPA, STAB
   Michael Roemelt        : Original ROCIS implementation
   Masaaki Saitow         : Open-shell DLPNO-CCSD energy and density
   Barbara Sandhoefer     : DKH picture change effects
   Avijit Sen             : IP-ROCIS
   Kantharuban Sivalingam : CASSCF convergence, NEVPT2, FIC-MRCI
   Bernardo de Souza      : ESD, SOC TD-DFT
   Georgi Stoychev        : AutoAux, RI-MP2 NMR, DLPNO-MP2 response
   Willem Van den Heuvel  : Paramagnetic NMR
   Boris Wezisla          : Elementary symmetry handling
   Frank Wennmohs         : Technical directorship


 We gratefully acknowledge several colleagues who have allowed us to
 interface, adapt or use parts of their codes:
   Stefan Grimme, W. Hujo, H. Kruse, P. Pracht,  : VdW corrections, initial TS optimization,
                  C. Bannwarth, S. Ehlert          DFT functionals, gCP, sTDA/sTD-DF
   Ed Valeev, F. Pavosevic, A. Kumar             : LibInt (2-el integral package), F12 methods
   Garnet Chan, S. Sharma, J. Yang, R. Olivares  : DMRG
   Ulf Ekstrom                                   : XCFun DFT Library
   Mihaly Kallay                                 : mrcc  (arbitrary order and MRCC methods)
   Jiri Pittner, Ondrej Demel                    : Mk-CCSD
   Frank Weinhold                                : gennbo (NPA and NBO analysis)
   Christopher J. Cramer and Donald G. Truhlar   : smd solvation model
   Lars Goerigk                                  : TD-DFT with DH, B97 family of functionals
   V. Asgeirsson, H. Jonsson                     : NEB implementation
   FAccTs GmbH                                   : IRC, NEB, NEB-TS, DLPNO-Multilevel, CI-OPT
                                                   MM, QMMM, 2- and 3-layer-ONIOM, Crystal-QMMM,
                                                   LR-CPCM, SF, NACMEs, symmetry and pop. for TD-DFT,
                                                   nearIR, NL-DFT gradient (VV10), updates on ESD,
                                                   ML-optimized integration grids
   S Lehtola, MJT Oliveira, MAL Marques          : LibXC Library
   Liviu Ungur et al                             : ANISO software


 Your calculation uses the libint2 library for the computation of 2-el integrals
 For citations please refer to: http://libint.valeyev.net

 Your ORCA version has been built with support for libXC version: 5.1.0
 For citations please refer to: https://tddft.org/programs/libxc/

 This ORCA versions uses:
   CBLAS   interface :  Fast vector & matrix operations
   LAPACKE interface :  Fast linear algebra routines
   SCALAPACK package :  Parallel linear algebra routines
   Shared memory     :  Shared parallel matrices
   BLAS/LAPACK       :  OpenBLAS 0.3.15  USE64BITINT DYNAMIC_ARCH NO_AFFINITY Haswell SINGLE_THREADED
        Core in use  :  Haswell
   Copyright (c) 2011-2014, The OpenBLAS Project


================================================================================

----- Orbital basis set information -----
Your calculation utilizes the basis: def2-TZVP
   F. Weigend and R. Ahlrichs, Phys. Chem. Chem. Phys. 7, 3297 (2005).

----- AuxC basis set information -----
Your calculation utilizes the auxiliary basis: def2-TZVP/C
  H-La, Hf-Rn : A. Hellweg, C. Hattig, S. Hofener and W. Klopper, Theor. Chem. Acc. 117, 587 (2007).
        Ce-Lu : J. Chmela and M. E. Harding, Mol. Phys. (2018).

================================================================================
                                        WARNINGS
                       Please study these warnings very carefully!
================================================================================


WARNING: Post HF methods need fully converged wavefunctions
  ===> : Setting SCFConvForced true
         You can overwrite this default with %scf ConvForced false 


WARNING: MDCI localization with Augmented Hessian Foster-Boys
  ===> : Switching off randomization!

INFO   : the flag for use of the SHARK integral package has been found!

================================================================================
                                       INPUT FILE
================================================================================
NAME = Fentanyl_OProt_47.inp
|  1> ! DLPNO-CCSD(T) def2-TZVP def2-TZVP/C VeryTightSCF
|  2> %maxcore 3400
|  3> 
|  4> %pal nprocs 8 
|  5> end
|  6> 
|  7> *xyz 1 1
|  8> O             3.159227         2.646742         0.064462
|  9> N            -1.362237        -0.309427         0.013243
| 10> N             2.814965         0.444835        -0.059726
| 11> C             1.329762         0.641541        -0.003864
| 12> C             0.660359         0.134753        -1.275703
| 13> C             0.733445        -0.027086         1.228867
| 14> C            -0.845939         0.365883        -1.161236
| 15> C            -0.775725         0.212168         1.232177
| 16> C            -2.816762        -0.418829         0.049745
| 17> C            -3.599613         0.900138         0.162670
| 18> C             3.330485        -0.908013        -0.159467
| 19> C             3.653451         1.434518        -0.023886
| 20> C            -5.082554         0.629255         0.195425
| 21> C             5.143288         1.235339        -0.080256
| 22> C             3.606450        -1.615388         1.001125
| 23> C             3.538881        -1.462618        -1.413427
| 24> C             5.953587         2.526002        -0.004024
| 25> C            -5.735645         0.401269         1.404259
| 26> C            -5.815086         0.545929        -0.986215
| 27> C             4.101807        -2.908672         0.900365
| 28> C             4.034241        -2.756672        -1.504154
| 29> C             4.314338        -3.477690        -0.349620
| 30> C            -7.090831         0.098514         1.433760
| 31> C            -7.170420         0.243432        -0.962217
| 32> C            -7.811969         0.017916         0.249167
| 33> H             1.174166         1.716486         0.070314
| 34> H             0.842967        -0.935049        -1.395842
| 35> H             1.056249         0.659807        -2.150215
| 36> H             1.181380         0.382736         2.139141
| 37> H             0.918249        -1.102832         1.199888
| 38> H            -1.043893         1.452736        -1.144502
| 39> H            -1.342145        -0.038692        -2.046085
| 40> H            -1.221892        -0.303084         2.085588
| 41> H            -0.969288         1.291744         1.365271
| 42> H            -3.135315        -0.945002        -0.855060
| 43> H            -3.082243        -1.062643         0.893600
| 44> H            -3.363829         1.548522        -0.686144
| 45> H            -3.304869         1.432886         1.071321
| 46> H             5.361971         0.687903        -1.000611
| 47> H             5.410533         0.555366         0.732304
| 48> H             3.433372        -1.161822         1.970451
| 49> H             3.313524        -0.891261        -2.306789
| 50> H             5.791572         3.060655         0.936914
| 51> H             5.748218         3.194021        -0.846263
| 52> H             7.015517         2.286181        -0.048567
| 53> H            -5.178765         0.469131         2.334637
| 54> H            -5.320758         0.727753        -1.936436
| 55> H             4.318808        -3.471905         1.800200
| 56> H             4.198490        -3.201396        -2.478461
| 57> H             4.698741        -4.488146        -0.424303
| 58> H            -7.585933        -0.070431         2.383767
| 59> H            -7.727991         0.188159        -1.890780
| 60> H            -8.870673        -0.214656         0.270285
| 61> H             3.868666         3.304824         0.084572
| 62> *
| 63> 
| 64> 
| 65>                          ****END OF INPUT****
================================================================================

                       ****************************
                       * Single Point Calculation *
                       ****************************

---------------------------------
CARTESIAN COORDINATES (ANGSTROEM)
---------------------------------
  O      3.159227    2.646742    0.064462
  N     -1.362237   -0.309427    0.013243
  N      2.814965    0.444835   -0.059726
  C      1.329762    0.641541   -0.003864
  C      0.660359    0.134753   -1.275703
  C      0.733445   -0.027086    1.228867
  C     -0.845939    0.365883   -1.161236
  C     -0.775725    0.212168    1.232177
  C     -2.816762   -0.418829    0.049745
  C     -3.599613    0.900138    0.162670
  C      3.330485   -0.908013   -0.159467
  C      3.653451    1.434518   -0.023886
  C     -5.082554    0.629255    0.195425
  C      5.143288    1.235339   -0.080256
  C      3.606450   -1.615388    1.001125
  C      3.538881   -1.462618   -1.413427
  C      5.953587    2.526002   -0.004024
  C     -5.735645    0.401269    1.404259
  C     -5.815086    0.545929   -0.986215
  C      4.101807   -2.908672    0.900365
  C      4.034241   -2.756672   -1.504154
  C      4.314338   -3.477690   -0.349620
  C     -7.090831    0.098514    1.433760
  C     -7.170420    0.243432   -0.962217
  C     -7.811969    0.017916    0.249167
  H      1.174166    1.716486    0.070314
  H      0.842967   -0.935049   -1.395842
  H      1.056249    0.659807   -2.150215
  H      1.181380    0.382736    2.139141
  H      0.918249   -1.102832    1.199888
  H     -1.043893    1.452736   -1.144502
  H     -1.342145   -0.038692   -2.046085
  H     -1.221892   -0.303084    2.085588
  H     -0.969288    1.291744    1.365271
  H     -3.135315   -0.945002   -0.855060
  H     -3.082243   -1.062643    0.893600
  H     -3.363829    1.548522   -0.686144
  H     -3.304869    1.432886    1.071321
  H      5.361971    0.687903   -1.000611
  H      5.410533    0.555366    0.732304
  H      3.433372   -1.161822    1.970451
  H      3.313524   -0.891261   -2.306789
  H      5.791572    3.060655    0.936914
  H      5.748218    3.194021   -0.846263
  H      7.015517    2.286181   -0.048567
  H     -5.178765    0.469131    2.334637
  H     -5.320758    0.727753   -1.936436
  H      4.318808   -3.471905    1.800200
  H      4.198490   -3.201396   -2.478461
  H      4.698741   -4.488146   -0.424303
  H     -7.585933   -0.070431    2.383767
  H     -7.727991    0.188159   -1.890780
  H     -8.870673   -0.214656    0.270285
  H      3.868666    3.304824    0.084572

----------------------------
CARTESIAN COORDINATES (A.U.)
----------------------------
  NO LB      ZA    FRAG     MASS         X           Y           Z
   0 O     8.0000    0    15.999    5.970074    5.001618    0.121816
   1 N     7.0000    0    14.007   -2.574255   -0.584732    0.025026
   2 N     7.0000    0    14.007    5.319513    0.840616   -0.112866
   3 C     6.0000    0    12.011    2.512886    1.212337   -0.007302
   4 C     6.0000    0    12.011    1.247898    0.254646   -2.410729
   5 C     6.0000    0    12.011    1.386010   -0.051185    2.322222
   6 C     6.0000    0    12.011   -1.598593    0.691419   -2.194418
   7 C     6.0000    0    12.011   -1.465908    0.400939    2.328477
   8 C     6.0000    0    12.011   -5.322909   -0.791472    0.094004
   9 C     6.0000    0    12.011   -6.802283    1.701014    0.307402
  10 C     6.0000    0    12.011    6.293705   -1.715896   -0.301349
  11 C     6.0000    0    12.011    6.904022    2.710846   -0.045138
  12 C     6.0000    0    12.011   -9.604635    1.189120    0.369300
  13 C     6.0000    0    12.011    9.719406    2.334452   -0.151662
  14 C     6.0000    0    12.011    6.815203   -3.052641    1.891852
  15 C     6.0000    0    12.011    6.687516   -2.763947   -2.670990
  16 C     6.0000    0    12.011   11.250649    4.773452   -0.007604
  17 C     6.0000    0    12.011  -10.838798    0.758289    2.653665
  18 C     6.0000    0    12.011  -10.988920    1.031656   -1.863676
  19 C     6.0000    0    12.011    7.751292   -5.496593    1.701443
  20 C     6.0000    0    12.011    7.623611   -5.209355   -2.842439
  21 C     6.0000    0    12.011    8.152917   -6.571882   -0.660686
  22 C     6.0000    0    12.011  -13.399729    0.186164    2.709414
  23 C     6.0000    0    12.011  -13.550130    0.460020   -1.818327
  24 C     6.0000    0    12.011  -14.762482    0.033856    0.470857
  25 H     1.0000    0     1.008    2.218852    3.243688    0.132874
  26 H     1.0000    0     1.008    1.592977   -1.766987   -2.637759
  27 H     1.0000    0     1.008    1.996021    1.246855   -4.063317
  28 H     1.0000    0     1.008    2.232485    0.723266    4.042391
  29 H     1.0000    0     1.008    1.735239   -2.084050    2.267460
  30 H     1.0000    0     1.008   -1.972672    2.745273   -2.162795
  31 H     1.0000    0     1.008   -2.536286   -0.073117   -3.866540
  32 H     1.0000    0     1.008   -2.309041   -0.572746    3.941190
  33 H     1.0000    0     1.008   -1.831689    2.441042    2.579988
  34 H     1.0000    0     1.008   -5.924887   -1.785795   -1.615829
  35 H     1.0000    0     1.008   -5.824595   -2.008104    1.688659
  36 H     1.0000    0     1.008   -6.356716    2.926282   -1.296624
  37 H     1.0000    0     1.008   -6.245297    2.707762    2.024503
  38 H     1.0000    0     1.008   10.132657    1.299948   -1.890881
  39 H     1.0000    0     1.008   10.224426    1.049490    1.383854
  40 H     1.0000    0     1.008    6.488133   -2.195525    3.723613
  41 H     1.0000    0     1.008    6.261653   -1.684239   -4.359199
  42 H     1.0000    0     1.008   10.944485    5.783800    1.770511
  43 H     1.0000    0     1.008   10.862558    6.035825   -1.599205
  44 H     1.0000    0     1.008   13.257406    4.320256   -0.091778
  45 H     1.0000    0     1.008   -9.786448    0.886529    4.411825
  46 H     1.0000    0     1.008  -10.054775    1.375254   -3.659334
  47 H     1.0000    0     1.008    8.161364   -6.560950    3.401885
  48 H     1.0000    0     1.008    7.933996   -6.049762   -4.683613
  49 H     1.0000    0     1.008    8.879334   -8.481367   -0.801816
  50 H     1.0000    0     1.008  -14.335336   -0.133095    4.504667
  51 H     1.0000    0     1.008  -14.603787    0.355569   -3.573056
  52 H     1.0000    0     1.008  -16.763143   -0.405641    0.510765
  53 H     1.0000    0     1.008    7.310719    6.245212    0.159818

--------------------------------
INTERNAL COORDINATES (ANGSTROEM)
--------------------------------
 O      0   0   0     0.000000000000     0.00000000     0.00000000
 N      1   0   0     5.402332389424     0.00000000     0.00000000
 N      1   2   0     2.232114114609    47.97860993     0.00000000
 C      3   1   2     1.499213715482    91.21971463   359.93782779
 C      4   3   1     1.523977983855   111.12565047   117.77256659
 C      4   3   1     1.523903457565   111.11404476   241.81580786
 C      2   1   3     1.449830383992    56.95872377   260.35435312
 C      2   1   3     1.449778523267    57.08252560    99.25554345
 C      2   1   3     1.459090185435   151.05916325   179.85673165
 C      9   2   1     1.537947232812   116.42103105   359.72855374
 C      3   1   2     1.451174299864   150.30351943   179.78117933
 C      3   1   2     1.297619250121    31.39825600   179.95588564
 C     10   9   2     1.507834373927   110.37382466   180.25577289
 C     12   3   1     1.504148974507   122.54717170   180.03134832
 C     11   3   1     1.386906580240   119.25187653    90.18786496
 C     11   3   1     1.386878250043   119.23041387   270.34131100
 C     14  12   3     1.525846246119   114.33771326   180.86758567
 C     13  10   9     1.392761684580   120.62643509    88.91148042
 C     13  10   9     1.392774009989   120.63629401   271.65472941
 C     15  11   3     1.388565677131   119.03215316   180.11301987
 C     16  11   3     1.388592335081   119.03529476   179.90153824
 C     21  16  11     1.389701422209   120.07453813     0.00000000
 C     18  13  10     1.388906042042   120.77386691   182.60084900
 C     19  13  10     1.388888257049   120.77155087   177.39500408
 C     23  18  13     1.389171201939   120.06917794     0.09120134
 H      4   3   1     1.088677750266   105.88313963   359.78201913
 H      5   4   3     1.091904473930   110.13149893    61.16643642
 H      5   4   3     1.094158047615   110.39644578   301.04328118
 H      6   4   3     1.094165705451   110.39206756    58.95534176
 H      6   4   3     1.091889077413   110.15577522   298.81197210
 H      7   2   1     1.104859835672   112.46518674   283.44554796
 H      7   2   1     1.092180881476   108.78213316   164.88393781
 H      8   2   1     1.092181280884   108.78219843   195.01659795
 H      8   2   1     1.104837086444   112.45496857    76.45990680
 H      9   2   1     1.094077752156   107.79552588   122.45208392
 H      9   2   1     1.094105977034   107.77640130   237.05676452
 H     10   9   2     1.093837790857   109.97798621    59.21574935
 H     10   9   2     1.093773786869   109.97140500   301.22604169
 H     14  12   3     1.092960088297   107.22129341    57.27600900
 H     14  12   3     1.092719966118   107.26401906   304.47880053
 H     15  11   3     1.084099167381   120.20328591     0.29643043
 H     16  11   3     1.084126497205   120.20365490   359.69348316
 H     17  14  12     1.094288358011   112.18588424    61.76074443
 H     17  14  12     1.094436998480   112.22220364   297.82553018
 H     17  14  12     1.089584102211   109.22933867   179.82720989
 H     18  13  10     1.086427083760   119.51761354     3.08561227
 H     19  13  10     1.086434575757   119.51926711   356.90410341
 H     20  15  11     1.083523822311   119.69151512   180.14949784
 H     21  16  11     1.083527249508   119.69119623   179.83180542
 H     22  21  16     1.083681016182   119.86858025   179.86429337
 H     23  18  13     1.084519111624   119.86756796   180.36779152
 H     24  19  13     1.084513609661   119.86819117   179.63234826
 H     25  23  18     1.084153985707   120.18302277   180.22739801
 H      1   2   3     0.967873971933   170.30722055   180.08905027

---------------------------
INTERNAL COORDINATES (A.U.)
---------------------------
 O      0   0   0     0.000000000000     0.00000000     0.00000000
 N      1   0   0    10.208928700423     0.00000000     0.00000000
 N      1   2   0     4.218084376271    47.97860993     0.00000000
 C      3   1   2     2.833103338479    91.21971463   359.93782779
 C      4   3   1     2.879901023611   111.12565047   117.77256659
 C      4   3   1     2.879760189334   111.11404476   241.81580786
 C      2   1   3     2.739782366382    56.95872377   260.35435312
 C      2   1   3     2.739684363815    57.08252560    99.25554345
 C      2   1   3     2.757280855165   151.05916325   179.85673165
 C      9   2   1     2.906299078437   116.42103105   359.72855374
 C      3   1   2     2.742321999327   150.30351943   179.78117933
 C      3   1   2     2.452145008833    31.39825600   179.95588564
 C     10   9   2     2.849394022034   110.37382466   180.25577289
 C     12   3   1     2.842429626436   122.54717170   180.03134832
 C     11   3   1     2.620873609988   119.25187653    90.18786496
 C     11   3   1     2.620820073672   119.23041387   270.34131100
 C     14  12   3     2.883431527636   114.33771326   180.86758567
 C     13  10   9     2.631938153674   120.62643509    88.91148042
 C     13  10   9     2.631961445322   120.63629401   271.65472941
 C     15  11   3     2.624008848740   119.03215316   180.11301987
 C     16  11   3     2.624059224965   119.03529476   179.90153824
 C     21  16  11     2.626155095895   120.07453813     0.00000000
 C     18  13  10     2.624652045209   120.77386691   182.60084900
 C     19  13  10     2.624618436442   120.77155087   177.39500408
 C     23  18  13     2.625153124795   120.06917794     0.09120134
 H      4   3   1     2.057302796097   105.88313963   359.78201913
 H      5   4   3     2.063400420132   110.13149893    61.16643642
 H      5   4   3     2.067659057218   110.39644578   301.04328118
 H      6   4   3     2.067673528431   110.39206756    58.95534176
 H      6   4   3     2.063371324930   110.15577522   298.81197210
 H      7   2   1     2.087882505789   112.46518674   283.44554796
 H      7   2   1     2.063922754695   108.78213316   164.88393781
 H      8   2   1     2.063923509467   108.78219843   195.01659795
 H      8   2   1     2.087839515978   112.45496857    76.45990680
 H      9   2   1     2.067507320791   107.79552588   122.45208392
 H      9   2   1     2.067560658081   107.77640130   237.05676452
 H     10   9   2     2.067053859654   109.97798621    59.21574935
 H     10   9   2     2.066932909644   109.97140500   301.22604169
 H     14  12   3     2.065395242188   107.22129341    57.27600900
 H     14  12   3     2.064941477032   107.26401906   304.47880053
 H     15  11   3     2.048650528362   120.20328591     0.29643043
 H     16  11   3     2.048702174245   120.20365490   359.69348316
 H     17  14  12     2.067905308179   112.18588424    61.76074443
 H     17  14  12     2.068186197959   112.22220364   297.82553018
 H     17  14  12     2.059015553052   109.22933867   179.82720989
 H     18  13  10     2.053049652782   119.51761354     3.08561227
 H     19  13  10     2.053063810604   119.51926711   356.90410341
 H     20  15  11     2.047563283747   119.69151512   180.14949784
 H     21  16  11     2.047569760211   119.69119623   179.83180542
 H     22  21  16     2.047860337114   119.86858025   179.86429337
 H     23  18  13     2.049444107973   119.86756796   180.36779152
 H     24  19  13     2.049433710769   119.86819117   179.63234826
 H     25  23  18     2.048754119985   120.18302277   180.22739801
 H      1   2   3     1.829016739104   170.30722055   180.08905027

---------------------
BASIS SET INFORMATION
---------------------
There are 4 groups of distinct atoms

 Group   1 Type O   : 11s6p2d1f contracted to 5s3p2d1f pattern {62111/411/11/1}
 Group   2 Type N   : 11s6p2d1f contracted to 5s3p2d1f pattern {62111/411/11/1}
 Group   3 Type C   : 11s6p2d1f contracted to 5s3p2d1f pattern {62111/411/11/1}
 Group   4 Type H   : 5s1p contracted to 3s1p pattern {311/1}

Atom   0O    basis set group =>   1
Atom   1N    basis set group =>   2
Atom   2N    basis set group =>   2
Atom   3C    basis set group =>   3
Atom   4C    basis set group =>   3
Atom   5C    basis set group =>   3
Atom   6C    basis set group =>   3
Atom   7C    basis set group =>   3
Atom   8C    basis set group =>   3
Atom   9C    basis set group =>   3
Atom  10C    basis set group =>   3
Atom  11C    basis set group =>   3
Atom  12C    basis set group =>   3
Atom  13C    basis set group =>   3
Atom  14C    basis set group =>   3
Atom  15C    basis set group =>   3
Atom  16C    basis set group =>   3
Atom  17C    basis set group =>   3
Atom  18C    basis set group =>   3
Atom  19C    basis set group =>   3
Atom  20C    basis set group =>   3
Atom  21C    basis set group =>   3
Atom  22C    basis set group =>   3
Atom  23C    basis set group =>   3
Atom  24C    basis set group =>   3
Atom  25H    basis set group =>   4
Atom  26H    basis set group =>   4
Atom  27H    basis set group =>   4
Atom  28H    basis set group =>   4
Atom  29H    basis set group =>   4
Atom  30H    basis set group =>   4
Atom  31H    basis set group =>   4
Atom  32H    basis set group =>   4
Atom  33H    basis set group =>   4
Atom  34H    basis set group =>   4
Atom  35H    basis set group =>   4
Atom  36H    basis set group =>   4
Atom  37H    basis set group =>   4
Atom  38H    basis set group =>   4
Atom  39H    basis set group =>   4
Atom  40H    basis set group =>   4
Atom  41H    basis set group =>   4
Atom  42H    basis set group =>   4
Atom  43H    basis set group =>   4
Atom  44H    basis set group =>   4
Atom  45H    basis set group =>   4
Atom  46H    basis set group =>   4
Atom  47H    basis set group =>   4
Atom  48H    basis set group =>   4
Atom  49H    basis set group =>   4
Atom  50H    basis set group =>   4
Atom  51H    basis set group =>   4
Atom  52H    basis set group =>   4
Atom  53H    basis set group =>   4
---------------------------------
AUXILIARY/C BASIS SET INFORMATION
---------------------------------
There are 4 groups of distinct atoms

 Group   1 Type O   : 8s6p5d3f1g contracted to 8s6p4d3f1g pattern {11111111/111111/2111/111/1}
 Group   2 Type N   : 8s6p5d3f1g contracted to 8s6p4d3f1g pattern {11111111/111111/2111/111/1}
 Group   3 Type C   : 8s6p5d3f1g contracted to 8s6p4d3f1g pattern {11111111/111111/2111/111/1}
 Group   4 Type H   : 4s3p2d contracted to 4s2p1d pattern {1111/21/2}

Atom   0O    basis set group =>   1
Atom   1N    basis set group =>   2
Atom   2N    basis set group =>   2
Atom   3C    basis set group =>   3
Atom   4C    basis set group =>   3
Atom   5C    basis set group =>   3
Atom   6C    basis set group =>   3
Atom   7C    basis set group =>   3
Atom   8C    basis set group =>   3
Atom   9C    basis set group =>   3
Atom  10C    basis set group =>   3
Atom  11C    basis set group =>   3
Atom  12C    basis set group =>   3
Atom  13C    basis set group =>   3
Atom  14C    basis set group =>   3
Atom  15C    basis set group =>   3
Atom  16C    basis set group =>   3
Atom  17C    basis set group =>   3
Atom  18C    basis set group =>   3
Atom  19C    basis set group =>   3
Atom  20C    basis set group =>   3
Atom  21C    basis set group =>   3
Atom  22C    basis set group =>   3
Atom  23C    basis set group =>   3
Atom  24C    basis set group =>   3
Atom  25H    basis set group =>   4
Atom  26H    basis set group =>   4
Atom  27H    basis set group =>   4
Atom  28H    basis set group =>   4
Atom  29H    basis set group =>   4
Atom  30H    basis set group =>   4
Atom  31H    basis set group =>   4
Atom  32H    basis set group =>   4
Atom  33H    basis set group =>   4
Atom  34H    basis set group =>   4
Atom  35H    basis set group =>   4
Atom  36H    basis set group =>   4
Atom  37H    basis set group =>   4
Atom  38H    basis set group =>   4
Atom  39H    basis set group =>   4
Atom  40H    basis set group =>   4
Atom  41H    basis set group =>   4
Atom  42H    basis set group =>   4
Atom  43H    basis set group =>   4
Atom  44H    basis set group =>   4
Atom  45H    basis set group =>   4
Atom  46H    basis set group =>   4
Atom  47H    basis set group =>   4
Atom  48H    basis set group =>   4
Atom  49H    basis set group =>   4
Atom  50H    basis set group =>   4
Atom  51H    basis set group =>   4
Atom  52H    basis set group =>   4
Atom  53H    basis set group =>   4


           ************************************************************
           *        Program running with 8 parallel MPI-processes     *
           *              working on a common directory               *
           ************************************************************
------------------------------------------------------------------------------
                           ORCA GTO INTEGRAL CALCULATION
------------------------------------------------------------------------------
------------------------------------------------------------------------------
                   ___                                                        
                  /   \      - P O W E R E D   B Y -                         
                 /     \                                                     
                 |  |  |   _    _      __       _____    __    __             
                 |  |  |  | |  | |    /  \     |  _  \  |  |  /  |          
                  \  \/   | |  | |   /    \    | | | |  |  | /  /          
                 / \  \   | |__| |  /  /\  \   | |_| |  |  |/  /          
                |  |  |   |  __  | /  /__\  \  |    /   |      \           
                |  |  |   | |  | | |   __   |  |    \   |  |\   \          
                \     /   | |  | | |  |  |  |  | |\  \  |  | \   \       
                 \___/    |_|  |_| |__|  |__|  |_| \__\ |__|  \__/        
                                                                              
                      - O R C A' S   B I G   F R I E N D -                    
                                      &                                       
                       - I N T E G R A L  F E E D E R -                       
                                                                              
 v1 FN, 2020, v2 2021                                                         
------------------------------------------------------------------------------


Reading SHARK input file Fentanyl_OProt_47.SHARKINP.tmp ... ok
----------------------
SHARK INTEGRAL PACKAGE
----------------------

Number of atoms                             ...     54
Number of basis functions                   ...    949
Number of shells                            ...    391
Maximum angular momentum                    ...      3
Integral batch strategy                     ... SHARK/LIBINT Hybrid
RI-J (if used) integral strategy            ... SPLIT-RIJ (Revised 2003 algorithm where possible)
Printlevel                                  ...      1
Contraction scheme used                     ... SEGMENTED contraction
Coulomb Range Separation                    ... NOT USED
Exchange Range Separation                   ... NOT USED
Finite Nucleus Model                        ... NOT USED
Auxiliary Coulomb fitting basis             ... NOT available
Auxiliary J/K fitting basis                 ... NOT available
Auxiliary Correlation fitting basis         ... AVAILABLE
   # of basis functions in Aux-C            ...   2335
   # of shells in Aux-C                     ...    753
   Maximum angular momentum in Aux-C        ...      4
Auxiliary 'external' fitting basis          ... NOT available
Integral threshold                          ...     1.000000e-12
Primitive cut-off                           ...     1.000000e-14
Primitive pair pre-selection threshold      ...     1.000000e-14

Calculating pre-screening integrals         ... done (  0.2 sec) Dimension = 391
Organizing shell pair data                  ... done (  0.7 sec)
Shell pair information
Total number of shell pairs                 ...     76636
Shell pairs after pre-screening             ...     49968
Total number of primitive shell pairs       ...    228112
Primitive shell pairs kept                  ...    100293
          la=0 lb=0:  14573 shell pairs
          la=1 lb=0:  14923 shell pairs
          la=1 lb=1:   3866 shell pairs
          la=2 lb=0:   6686 shell pairs
          la=2 lb=1:   3422 shell pairs
          la=2 lb=2:    790 shell pairs
          la=3 lb=0:   3135 shell pairs
          la=3 lb=1:   1657 shell pairs
          la=3 lb=2:    733 shell pairs
          la=3 lb=3:    183 shell pairs

Calculating one electron integrals          ... done (  0.2 sec)
Calculating RI/C V-Matrix + Cholesky decomp.... done (  0.4 sec)
Calculating Nuclear repulsion               ... done (  0.0 sec) ENN=   2115.771285999851 Eh

SHARK setup successfully completed in   2.5 seconds

Maximum memory used throughout the entire GTOINT-calculation: 77.3 MB
[1704049890.344374] [gra289:22438:0]          mpool.c:42   UCX  WARN  object 0xbca5400 was not returned to mpool ucp_requests
[1704049890.344413] [gra289:22438:0]          mpool.c:42   UCX  WARN  object 0xbca55c0 was not returned to mpool ucp_requests
[1704049890.344426] [gra289:22438:0]          mpool.c:42   UCX  WARN  object 0xbca5780 was not returned to mpool ucp_requests
[1704049890.344437] [gra289:22438:0]          mpool.c:42   UCX  WARN  object 0xbca5940 was not returned to mpool ucp_requests
[1704049890.344449] [gra289:22438:0]          mpool.c:42   UCX  WARN  object 0xbca5b00 was not returned to mpool ucp_requests
[1704049890.344459] [gra289:22438:0]          mpool.c:42   UCX  WARN  object 0xbca5cc0 was not returned to mpool ucp_requests
[1704049890.344471] [gra289:22438:0]          mpool.c:42   UCX  WARN  object 0xbca5e80 was not returned to mpool ucp_requests
[1704049890.344485] [gra289:22438:0]          mpool.c:42   UCX  WARN  object 0xbca6040 was not returned to mpool ucp_requests
[1704049890.344517] [gra289:22438:0]          mpool.c:42   UCX  WARN  object 0xbca6200 was not returned to mpool ucp_requests
[1704049890.344540] [gra289:22438:0]          mpool.c:42   UCX  WARN  object 0xbca63c0 was not returned to mpool ucp_requests
[1704049890.344552] [gra289:22438:0]          mpool.c:42   UCX  WARN  object 0xbca6580 was not returned to mpool ucp_requests
[1704049890.344562] [gra289:22438:0]          mpool.c:42   UCX  WARN  object 0xbca6740 was not returned to mpool ucp_requests
[1704049890.344571] [gra289:22438:0]          mpool.c:42   UCX  WARN  object 0xbca6900 was not returned to mpool ucp_requests
[1704049890.344581] [gra289:22438:0]          mpool.c:42   UCX  WARN  object 0xbca6ac0 was not returned to mpool ucp_requests
[1704049890.344591] [gra289:22438:0]          mpool.c:42   UCX  WARN  object 0xbca6c80 was not returned to mpool ucp_requests
[1704049890.344600] [gra289:22438:0]          mpool.c:42   UCX  WARN  object 0xbca6e40 was not returned to mpool ucp_requests
[1704049890.344609] [gra289:22438:0]          mpool.c:42   UCX  WARN  object 0xbca7000 was not returned to mpool ucp_requests
[1704049890.344619] [gra289:22438:0]          mpool.c:42   UCX  WARN  object 0xbca71c0 was not returned to mpool ucp_requests
[1704049890.422230] [gra289:22436:0]          mpool.c:42   UCX  WARN  object 0xb385400 was not returned to mpool ucp_requests
[1704049890.422273] [gra289:22436:0]          mpool.c:42   UCX  WARN  object 0xb3855c0 was not returned to mpool ucp_requests
[1704049890.422287] [gra289:22436:0]          mpool.c:42   UCX  WARN  object 0xb385780 was not returned to mpool ucp_requests
[1704049890.422301] [gra289:22436:0]          mpool.c:42   UCX  WARN  object 0xb385940 was not returned to mpool ucp_requests
[1704049890.422311] [gra289:22436:0]          mpool.c:42   UCX  WARN  object 0xb385b00 was not returned to mpool ucp_requests
[1704049890.422322] [gra289:22436:0]          mpool.c:42   UCX  WARN  object 0xb385cc0 was not returned to mpool ucp_requests
[1704049890.422290] [gra289:22437:0]          mpool.c:42   UCX  WARN  object 0xbea4400 was not returned to mpool ucp_requests
[1704049890.422333] [gra289:22436:0]          mpool.c:42   UCX  WARN  object 0xb385e80 was not returned to mpool ucp_requests
[1704049890.422344] [gra289:22436:0]          mpool.c:42   UCX  WARN  object 0xb386040 was not returned to mpool ucp_requests
[1704049890.422353] [gra289:22436:0]          mpool.c:42   UCX  WARN  object 0xb386200 was not returned to mpool ucp_requests
[1704049890.422433] [gra289:22439:0]          mpool.c:42   UCX  WARN  object 0xaa79400 was not returned to mpool ucp_requests
[1704049890.422394] [gra289:22440:0]          mpool.c:42   UCX  WARN  object 0xb02b0c0 was not returned to mpool ucp_requests
[1704049890.422518] [gra289:22441:0]          mpool.c:42   UCX  WARN  object 0xad0f240 was not returned to mpool ucp_requests
[1704049890.422375] [gra289:22436:0]          mpool.c:42   UCX  WARN  object 0xb3863c0 was not returned to mpool ucp_requests
[1704049890.422397] [gra289:22436:0]          mpool.c:42   UCX  WARN  object 0xb386580 was not returned to mpool ucp_requests
[1704049890.422406] [gra289:22436:0]          mpool.c:42   UCX  WARN  object 0xb386740 was not returned to mpool ucp_requests
[1704049890.422415] [gra289:22436:0]          mpool.c:42   UCX  WARN  object 0xb386900 was not returned to mpool ucp_requests
[1704049890.422425] [gra289:22436:0]          mpool.c:42   UCX  WARN  object 0xb386ac0 was not returned to mpool ucp_requests
[1704049890.422434] [gra289:22436:0]          mpool.c:42   UCX  WARN  object 0xb386c80 was not returned to mpool ucp_requests
[1704049890.422444] [gra289:22436:0]          mpool.c:42   UCX  WARN  object 0xb386e40 was not returned to mpool ucp_requests
[1704049890.422453] [gra289:22436:0]          mpool.c:42   UCX  WARN  object 0xb387000 was not returned to mpool ucp_requests
[1704049890.422462] [gra289:22436:0]          mpool.c:42   UCX  WARN  object 0xb3871c0 was not returned to mpool ucp_requests
[1704049890.422613] [gra289:22437:0]          mpool.c:42   UCX  WARN  object 0xbea45c0 was not returned to mpool ucp_requests
[1704049890.422670] [gra289:22437:0]          mpool.c:42   UCX  WARN  object 0xbea4780 was not returned to mpool ucp_requests
[1704049890.422621] [gra289:22441:0]          mpool.c:42   UCX  WARN  object 0xad0f400 was not returned to mpool ucp_requests
[1704049890.422688] [gra289:22441:0]          mpool.c:42   UCX  WARN  object 0xad0f5c0 was not returned to mpool ucp_requests
[1704049890.422589] [gra289:22439:0]          mpool.c:42   UCX  WARN  object 0xaa795c0 was not returned to mpool ucp_requests
[1704049890.422642] [gra289:22439:0]          mpool.c:42   UCX  WARN  object 0xaa79780 was not returned to mpool ucp_requests
[1704049890.422696] [gra289:22439:0]          mpool.c:42   UCX  WARN  object 0xaa79940 was not returned to mpool ucp_requests
[1704049890.422566] [gra289:22440:0]          mpool.c:42   UCX  WARN  object 0xb02b280 was not returned to mpool ucp_requests
[1704049890.422588] [gra289:22440:0]          mpool.c:42   UCX  WARN  object 0xb02b440 was not returned to mpool ucp_requests
[1704049890.422600] [gra289:22440:0]          mpool.c:42   UCX  WARN  object 0xb02b600 was not returned to mpool ucp_requests
[1704049890.422650] [gra289:22440:0]          mpool.c:42   UCX  WARN  object 0xb02b7c0 was not returned to mpool ucp_requests
[1704049890.422669] [gra289:22440:0]          mpool.c:42   UCX  WARN  object 0xb02b980 was not returned to mpool ucp_requests
[1704049890.422697] [gra289:22435:0]          mpool.c:42   UCX  WARN  object 0xad8b980 was not returned to mpool ucp_requests
[1704049890.422728] [gra289:22435:0]          mpool.c:42   UCX  WARN  object 0xad8bb40 was not returned to mpool ucp_requests
[1704049890.422741] [gra289:22435:0]          mpool.c:42   UCX  WARN  object 0xad8bd00 was not returned to mpool ucp_requests
[1704049890.422753] [gra289:22435:0]          mpool.c:42   UCX  WARN  object 0xad8bec0 was not returned to mpool ucp_requests
[1704049890.422763] [gra289:22435:0]          mpool.c:42   UCX  WARN  object 0xad8c080 was not returned to mpool ucp_requests
[1704049890.422774] [gra289:22435:0]          mpool.c:42   UCX  WARN  object 0xad8c240 was not returned to mpool ucp_requests
[1704049890.422784] [gra289:22435:0]          mpool.c:42   UCX  WARN  object 0xad8c400 was not returned to mpool ucp_requests
[1704049890.422794] [gra289:22435:0]          mpool.c:42   UCX  WARN  object 0xad8c5c0 was not returned to mpool ucp_requests
[1704049890.422723] [gra289:22437:0]          mpool.c:42   UCX  WARN  object 0xbea4940 was not returned to mpool ucp_requests
[1704049890.422775] [gra289:22437:0]          mpool.c:42   UCX  WARN  object 0xbea4b00 was not returned to mpool ucp_requests
[1704049890.422752] [gra289:22441:0]          mpool.c:42   UCX  WARN  object 0xad0f780 was not returned to mpool ucp_requests
[1704049890.422749] [gra289:22439:0]          mpool.c:42   UCX  WARN  object 0xaa79b00 was not returned to mpool ucp_requests
[1704049890.422801] [gra289:22439:0]          mpool.c:42   UCX  WARN  object 0xaa79cc0 was not returned to mpool ucp_requests
[1704049890.422723] [gra289:22440:0]          mpool.c:42   UCX  WARN  object 0xb02bb40 was not returned to mpool ucp_requests
[1704049890.422779] [gra289:22440:0]          mpool.c:42   UCX  WARN  object 0xb02bd00 was not returned to mpool ucp_requests
[1704049890.422805] [gra289:22435:0]          mpool.c:42   UCX  WARN  object 0xad8c780 was not returned to mpool ucp_requests
[1704049890.422815] [gra289:22435:0]          mpool.c:42   UCX  WARN  object 0xad8c940 was not returned to mpool ucp_requests
[1704049890.422825] [gra289:22435:0]          mpool.c:42   UCX  WARN  object 0xad8cb00 was not returned to mpool ucp_requests
[1704049890.422835] [gra289:22435:0]          mpool.c:42   UCX  WARN  object 0xad8ccc0 was not returned to mpool ucp_requests
[1704049890.422845] [gra289:22435:0]          mpool.c:42   UCX  WARN  object 0xad8ce80 was not returned to mpool ucp_requests
[1704049890.422827] [gra289:22437:0]          mpool.c:42   UCX  WARN  object 0xbea4cc0 was not returned to mpool ucp_requests
[1704049890.422807] [gra289:22441:0]          mpool.c:42   UCX  WARN  object 0xad0f940 was not returned to mpool ucp_requests
[1704049890.422865] [gra289:22441:0]          mpool.c:42   UCX  WARN  object 0xad0fb00 was not returned to mpool ucp_requests
[1704049890.422837] [gra289:22440:0]          mpool.c:42   UCX  WARN  object 0xb02bec0 was not returned to mpool ucp_requests
[1704049890.422852] [gra289:22439:0]          mpool.c:42   UCX  WARN  object 0xaa79e80 was not returned to mpool ucp_requests
[1704049890.422893] [gra289:22440:0]          mpool.c:42   UCX  WARN  object 0xb02c080 was not returned to mpool ucp_requests
[1704049890.422949] [gra289:22440:0]          mpool.c:42   UCX  WARN  object 0xb02c240 was not returned to mpool ucp_requests
[1704049890.422921] [gra289:22441:0]          mpool.c:42   UCX  WARN  object 0xad0fcc0 was not returned to mpool ucp_requests
[1704049890.422983] [gra289:22441:0]          mpool.c:42   UCX  WARN  object 0xad0fe80 was not returned to mpool ucp_requests
[1704049890.422878] [gra289:22437:0]          mpool.c:42   UCX  WARN  object 0xbea4e80 was not returned to mpool ucp_requests
[1704049890.422930] [gra289:22437:0]          mpool.c:42   UCX  WARN  object 0xbea5040 was not returned to mpool ucp_requests
[1704049890.422986] [gra289:22437:0]          mpool.c:42   UCX  WARN  object 0xbea5200 was not returned to mpool ucp_requests
[1704049890.422904] [gra289:22439:0]          mpool.c:42   UCX  WARN  object 0xaa7a040 was not returned to mpool ucp_requests
[1704049890.422955] [gra289:22439:0]          mpool.c:42   UCX  WARN  object 0xaa7a200 was not returned to mpool ucp_requests
[1704049890.423011] [gra289:22440:0]          mpool.c:42   UCX  WARN  object 0xb02c400 was not returned to mpool ucp_requests
[1704049890.423067] [gra289:22440:0]          mpool.c:42   UCX  WARN  object 0xb02c5c0 was not returned to mpool ucp_requests
[1704049890.423039] [gra289:22441:0]          mpool.c:42   UCX  WARN  object 0xad10040 was not returned to mpool ucp_requests
[1704049890.423095] [gra289:22441:0]          mpool.c:42   UCX  WARN  object 0xad10200 was not returned to mpool ucp_requests
[1704049890.423022] [gra289:22439:0]          mpool.c:42   UCX  WARN  object 0xaa7a3c0 was not returned to mpool ucp_requests
[1704049890.423074] [gra289:22439:0]          mpool.c:42   UCX  WARN  object 0xaa7a580 was not returned to mpool ucp_requests
[1704049890.423003] [gra289:22437:0]          mpool.c:42   UCX  WARN  object 0xbea53c0 was not returned to mpool ucp_requests
[1704049890.423048] [gra289:22437:0]          mpool.c:42   UCX  WARN  object 0xbea5580 was not returned to mpool ucp_requests
[1704049890.423099] [gra289:22437:0]          mpool.c:42   UCX  WARN  object 0xbea5740 was not returned to mpool ucp_requests
[1704049890.423125] [gra289:22439:0]          mpool.c:42   UCX  WARN  object 0xaa7a740 was not returned to mpool ucp_requests
[1704049890.423176] [gra289:22439:0]          mpool.c:42   UCX  WARN  object 0xaa7a900 was not returned to mpool ucp_requests
[1704049890.423152] [gra289:22441:0]          mpool.c:42   UCX  WARN  object 0xad103c0 was not returned to mpool ucp_requests
[1704049890.423124] [gra289:22440:0]          mpool.c:42   UCX  WARN  object 0xb02c780 was not returned to mpool ucp_requests
[1704049890.423180] [gra289:22440:0]          mpool.c:42   UCX  WARN  object 0xb02c940 was not returned to mpool ucp_requests
[1704049890.423150] [gra289:22437:0]          mpool.c:42   UCX  WARN  object 0xbea5900 was not returned to mpool ucp_requests
[1704049890.423219] [gra289:22441:0]          mpool.c:42   UCX  WARN  object 0xad10580 was not returned to mpool ucp_requests
[1704049890.423289] [gra289:22441:0]          mpool.c:42   UCX  WARN  object 0xad10740 was not returned to mpool ucp_requests
[1704049890.423203] [gra289:22437:0]          mpool.c:42   UCX  WARN  object 0xbea5ac0 was not returned to mpool ucp_requests
[1704049890.423266] [gra289:22437:0]          mpool.c:42   UCX  WARN  object 0xbea5c80 was not returned to mpool ucp_requests
[1704049890.423250] [gra289:22440:0]          mpool.c:42   UCX  WARN  object 0xb02cb00 was not returned to mpool ucp_requests
[1704049890.423270] [gra289:22440:0]          mpool.c:42   UCX  WARN  object 0xb02ccc0 was not returned to mpool ucp_requests
[1704049890.423239] [gra289:22439:0]          mpool.c:42   UCX  WARN  object 0xaa7aac0 was not returned to mpool ucp_requests
[1704049890.423292] [gra289:22439:0]          mpool.c:42   UCX  WARN  object 0xaa7ac80 was not returned to mpool ucp_requests
[1704049890.423349] [gra289:22441:0]          mpool.c:42   UCX  WARN  object 0xad10900 was not returned to mpool ucp_requests
[1704049890.423344] [gra289:22439:0]          mpool.c:42   UCX  WARN  object 0xaa7ae40 was not returned to mpool ucp_requests
[1704049890.423396] [gra289:22439:0]          mpool.c:42   UCX  WARN  object 0xaa7b000 was not returned to mpool ucp_requests
[1704049890.423318] [gra289:22437:0]          mpool.c:42   UCX  WARN  object 0xbea5e40 was not returned to mpool ucp_requests
[1704049890.423370] [gra289:22437:0]          mpool.c:42   UCX  WARN  object 0xbea6000 was not returned to mpool ucp_requests
[1704049890.423318] [gra289:22440:0]          mpool.c:42   UCX  WARN  object 0xb02ce80 was not returned to mpool ucp_requests
[1704049890.423447] [gra289:22439:0]          mpool.c:42   UCX  WARN  object 0xaa7b1c0 was not returned to mpool ucp_requests
[1704049890.423421] [gra289:22437:0]          mpool.c:42   UCX  WARN  object 0xbea61c0 was not returned to mpool ucp_requests
[1704049890.423591] [gra289:22441:0]          mpool.c:42   UCX  WARN  object 0xad10ac0 was not returned to mpool ucp_requests
[1704049890.423614] [gra289:22441:0]          mpool.c:42   UCX  WARN  object 0xad10c80 was not returned to mpool ucp_requests
[1704049890.423631] [gra289:22441:0]          mpool.c:42   UCX  WARN  object 0xad10e40 was not returned to mpool ucp_requests
[1704049890.423642] [gra289:22441:0]          mpool.c:42   UCX  WARN  object 0xad11000 was not returned to mpool ucp_requests


           ************************************************************
           *        Program running with 8 parallel MPI-processes     *
           *              working on a common directory               *
           ************************************************************
-------------------------------------------------------------------------------
                                 ORCA SCF
-------------------------------------------------------------------------------

------------
SCF SETTINGS
------------
Hamiltonian:
 Ab initio Hamiltonian  Method          .... Hartree-Fock(GTOs)


General Settings:
 Integral files         IntName         .... Fentanyl_OProt_47
 Hartree-Fock type      HFTyp           .... RHF
 Total Charge           Charge          ....    1
 Multiplicity           Mult            ....    1
 Number of Electrons    NEL             ....  182
 Basis Dimension        Dim             ....  949
 Nuclear Repulsion      ENuc            ....   2115.7712859999 Eh

Convergence Acceleration:
 DIIS                   CNVDIIS         .... on
   Start iteration      DIISMaxIt       ....    12
   Startup error        DIISStart       ....  0.200000
   # of expansion vecs  DIISMaxEq       ....     5
   Bias factor          DIISBfac        ....   1.050
   Max. coefficient     DIISMaxC        ....  10.000
 Trust-Rad. Augm. Hess. CNVTRAH         .... auto
   Auto Start mean grad. ratio tolernc. ....  1.125000
   Auto Start start iteration           ....    20
   Auto Start num. interpolation iter.  ....    10
   Max. Number of Micro iterations      ....    16
   Max. Number of Macro iterations      .... Maxiter - #DIIS iter
   Number of Davidson start vectors     ....     2
   Converg. threshold I  (grad. norm)   ....   2.000e-06
   Converg. threshold II (energy diff.) ....   1.000e-09
   Grad. Scal. Fac. for Micro threshold ....   0.100
   Minimum threshold for Micro iter.    ....   0.010
   NR start threshold (gradient norm)   ....   0.001
   Initial trust radius                 ....   0.400
   Minimum AH scaling param. (alpha)    ....   1.000
   Maximum AH scaling param. (alpha)    .... 1000.000
   Orbital update algorithm             .... Taylor
   White noise on init. David. guess    .... on
   Maximum white noise                  ....   0.010
   Quad. conv. algorithm                .... NR
 SOSCF                  CNVSOSCF        .... on
   Start iteration      SOSCFMaxIt      ....   150
   Startup grad/error   SOSCFStart      ....  0.003300
 Level Shifting         CNVShift        .... on
   Level shift para.    LevelShift      ....    0.2500
   Turn off err/grad.   ShiftErr        ....    0.0010
 Zerner damping         CNVZerner       .... off
 Static damping         CNVDamp         .... on
   Fraction old density DampFac         ....    0.7000
   Max. Damping (<1)    DampMax         ....    0.9800
   Min. Damping (>=0)   DampMin         ....    0.0000
   Turn off err/grad.   DampErr         ....    0.1000
 Fernandez-Rico         CNVRico         .... off

SCF Procedure:
 Maximum # iterations   MaxIter         ....   125
 SCF integral mode      SCFMode         .... Direct
   Integral package                     .... SHARK and LIBINT hybrid scheme
 Reset frequency        DirectResetFreq ....    20
 Integral Threshold     Thresh          ....  1.000e-12 Eh
 Primitive CutOff       TCut            ....  1.000e-14 Eh

Convergence Tolerance:
 Convergence Check Mode ConvCheckMode   .... Total+1el-Energy
 Convergence forced     ConvForced      .... 1
 Energy Change          TolE            ....  1.000e-09 Eh
 1-El. energy change                    ....  1.000e-06 Eh
 Orbital Gradient       TolG            ....  2.000e-06
 Orbital Rotation angle TolX            ....  2.000e-06
 DIIS Error             TolErr          ....  1.000e-08


Diagonalization of the overlap matrix:
Smallest eigenvalue                        ... 6.672e-06
Time for diagonalization                   ...    0.297 sec
Threshold for overlap eigenvalues          ... 1.000e-08
Number of eigenvalues below threshold      ... 0
Time for construction of square roots      ...    0.172 sec
Total time needed                          ...    0.476 sec

Time for model grid setup =    0.513 sec

------------------------------
INITIAL GUESS: MODEL POTENTIAL
------------------------------
Loading Hartree-Fock densities                     ... done
Calculating cut-offs                               ... done
Initializing the effective Hamiltonian             ... done
Setting up the integral package (SHARK)            ... done
Starting the Coulomb interaction                   ... done (   1.1 sec)
Reading the grid                                   ... done
Mapping shells                                     ... done
Starting the XC term evaluation                    ... done (   0.3 sec)
Transforming the Hamiltonian                       ... done (   0.1 sec)
Diagonalizing the Hamiltonian                      ... done (   0.3 sec)
Back transforming the eigenvectors                 ... done (   0.1 sec)
Now organizing SCF variables                       ... done
                      ------------------
                      INITIAL GUESS DONE (   2.5 sec)
                      ------------------
--------------
SCF ITERATIONS
--------------
ITER       Energy         Delta-E        Max-DP      RMS-DP      [F,P]     Damp
               ***  Starting incremental Fock matrix formation  ***
  0  -1032.8675909012   0.000000000000 0.03447985  0.00052934  0.2947848 0.7000
  1  -1033.2237638424  -0.356172941225 0.02527852  0.00043626  0.2189511 0.7000
                               ***Turning on DIIS***
  2  -1033.4451012049  -0.221337362410 0.01819635  0.00030379  0.1615154 0.7000
  3  -1036.2373995595  -2.792298354688 0.01310645  0.00021441  0.1180734 0.7000
  4  -1035.8940503556   0.343349203995 0.03190363  0.00054185  0.0834924 0.0000
  5  -1034.0075839718   1.886466383793 0.00532275  0.00006600  0.0046053 0.0000
                      *** Initiating the SOSCF procedure ***
                           *** Shutting down DIIS ***
                      *** Re-Reading the Fockian *** 
                      *** Removing any level shift *** 
ITER      Energy       Delta-E        Grad      Rot      Max-DP    RMS-DP
  6  -1033.92568357   0.0819004014  0.001947  0.001947  0.002962  0.000035
               *** Restarting incremental Fock matrix formation ***
  7  -1033.91660879   0.0090747770  0.000597  0.001302  0.001171  0.000018
  8  -1033.91663890  -0.0000301066  0.000385  0.001069  0.001222  0.000014
  9  -1033.91664715  -0.0000082547  0.000144  0.000232  0.000237  0.000004
 10  -1033.91664819  -0.0000010372  0.000100  0.000290  0.000139  0.000002
 11  -1033.91664847  -0.0000002759  0.000039  0.000176  0.000066  0.000001
 12  -1033.91664854  -0.0000000734  0.000017  0.000048  0.000026  0.000000
 13  -1033.91664855  -0.0000000085  0.000003  0.000013  0.000011  0.000000
 14  -1033.91664855  -0.0000000011  0.000002  0.000003  0.000005  0.000000
                  ***Gradient check signals convergence***
              ***Rediagonalizing the Fockian in SOSCF/NRSCF***

               *****************************************************
               *                     SUCCESS                       *
               *           SCF CONVERGED AFTER  15 CYCLES          *
               *****************************************************


----------------
TOTAL SCF ENERGY
----------------

Total Energy       :        -1033.91664855 Eh          -28134.30233 eV

Components:
Nuclear Repulsion  :         2115.77128600 Eh           57573.06365 eV
Electronic Energy  :        -3149.68793455 Eh          -85707.36598 eV
One Electron Energy:        -5588.14655292 Eh         -152061.19835 eV
Two Electron Energy:         2438.45861837 Eh           66353.83237 eV

Virial components:
Potential Energy   :        -2066.91724910 Eh          -56243.67772 eV
Kinetic Energy     :         1033.00060055 Eh           28109.37539 eV
Virial Ratio       :            2.00088678


---------------
SCF CONVERGENCE
---------------

  Last Energy change         ...    2.3101e-10  Tolerance :   1.0000e-09
  Last MAX-Density change    ...    1.4709e-06  Tolerance :   1.0000e-08
  Last RMS-Density change    ...    2.3340e-08  Tolerance :   1.0000e-09
  Last Orbital Gradient      ...    4.1991e-07  Tolerance :   2.0000e-06
  Last Orbital Rotation      ...    8.8987e-07  Tolerance :   2.0000e-06

             **** THE GBW FILE WAS UPDATED (Fentanyl_OProt_47.gbw) ****
             **** DENSITY Fentanyl_OProt_47.scfp WAS UPDATED ****
             **** ENERGY FILE WAS UPDATED (Fentanyl_OProt_47.en.tmp) ****
             **** THE GBW FILE WAS UPDATED (Fentanyl_OProt_47.gbw) ****
             **** DENSITY Fentanyl_OProt_47.scfp WAS UPDATED ****
----------------
ORBITAL ENERGIES
----------------

  NO   OCC          E(Eh)            E(eV) 
   0   2.0000     -20.792816      -565.8013 
   1   2.0000     -15.785406      -429.5427 
   2   2.0000     -15.636077      -425.4793 
   3   2.0000     -11.558475      -314.5221 
   4   2.0000     -11.413392      -310.5742 
   5   2.0000     -11.407651      -310.4180 
   6   2.0000     -11.405530      -310.3602 
   7   2.0000     -11.376937      -309.5822 
   8   2.0000     -11.369528      -309.3806 
   9   2.0000     -11.369485      -309.3794 
  10   2.0000     -11.360201      -309.1268 
  11   2.0000     -11.359847      -309.1171 
  12   2.0000     -11.357689      -309.0584 
  13   2.0000     -11.349231      -308.8283 
  14   2.0000     -11.349183      -308.8270 
  15   2.0000     -11.338589      -308.5387 
  16   2.0000     -11.338546      -308.5375 
  17   2.0000     -11.327157      -308.2276 
  18   2.0000     -11.297565      -307.4224 
  19   2.0000     -11.296513      -307.3937 
  20   2.0000     -11.287430      -307.1466 
  21   2.0000     -11.287343      -307.1442 
  22   2.0000     -11.285921      -307.1055 
  23   2.0000     -11.285907      -307.1051 
  24   2.0000     -11.282728      -307.0186 
  25   2.0000      -1.638507       -44.5860 
  26   2.0000      -1.459777       -39.7225 
  27   2.0000      -1.336500       -36.3680 
  28   2.0000      -1.285732       -34.9865 
  29   2.0000      -1.237500       -33.6741 
  30   2.0000      -1.215575       -33.0775 
  31   2.0000      -1.196318       -32.5535 
  32   2.0000      -1.158129       -31.5143 
  33   2.0000      -1.152397       -31.3583 
  34   2.0000      -1.132467       -30.8160 
  35   2.0000      -1.124794       -30.6072 
  36   2.0000      -1.077079       -29.3088 
  37   2.0000      -1.070296       -29.1242 
  38   2.0000      -1.041525       -28.3413 
  39   2.0000      -1.022755       -27.8306 
  40   2.0000      -0.990030       -26.9401 
  41   2.0000      -0.978450       -26.6250 
  42   2.0000      -0.959202       -26.1012 
  43   2.0000      -0.945133       -25.7184 
  44   2.0000      -0.930719       -25.3262 
  45   2.0000      -0.894538       -24.3416 
  46   2.0000      -0.884349       -24.0644 
  47   2.0000      -0.874870       -23.8064 
  48   2.0000      -0.869737       -23.6668 
  49   2.0000      -0.848545       -23.0901 
  50   2.0000      -0.832474       -22.6528 
  51   2.0000      -0.827302       -22.5120 
  52   2.0000      -0.794865       -21.6294 
  53   2.0000      -0.772058       -21.0088 
  54   2.0000      -0.759574       -20.6691 
  55   2.0000      -0.755509       -20.5584 
  56   2.0000      -0.752455       -20.4753 
  57   2.0000      -0.740830       -20.1590 
  58   2.0000      -0.737279       -20.0624 
  59   2.0000      -0.732813       -19.9408 
  60   2.0000      -0.721890       -19.6436 
  61   2.0000      -0.717925       -19.5357 
  62   2.0000      -0.712431       -19.3862 
  63   2.0000      -0.707082       -19.2407 
  64   2.0000      -0.693009       -18.8577 
  65   2.0000      -0.690142       -18.7797 
  66   2.0000      -0.681022       -18.5316 
  67   2.0000      -0.673524       -18.3275 
  68   2.0000      -0.670765       -18.2525 
  69   2.0000      -0.657913       -17.9027 
  70   2.0000      -0.645912       -17.5761 
  71   2.0000      -0.643075       -17.4990 
  72   2.0000      -0.640193       -17.4205 
  73   2.0000      -0.635878       -17.3031 
  74   2.0000      -0.629338       -17.1252 
  75   2.0000      -0.628241       -17.0953 
  76   2.0000      -0.620617       -16.8879 
  77   2.0000      -0.613381       -16.6909 
  78   2.0000      -0.596929       -16.2433 
  79   2.0000      -0.593070       -16.1382 
  80   2.0000      -0.573170       -15.5968 
  81   2.0000      -0.563300       -15.3282 
  82   2.0000      -0.553386       -15.0584 
  83   2.0000      -0.553288       -15.0557 
  84   2.0000      -0.542583       -14.7644 
  85   2.0000      -0.541928       -14.7466 
  86   2.0000      -0.472875       -12.8676 
  87   2.0000      -0.468950       -12.7608 
  88   2.0000      -0.447638       -12.1808 
  89   2.0000      -0.393030       -10.6949 
  90   2.0000      -0.382943       -10.4204 
  91   0.0000      -0.023720        -0.6454 
  92   0.0000      -0.020827        -0.5667 
  93   0.0000      -0.005843        -0.1590 
  94   0.0000      -0.000582        -0.0158 
  95   0.0000       0.021588         0.5874 
  96   0.0000       0.039106         1.0641 
  97   0.0000       0.040768         1.1094 
  98   0.0000       0.057789         1.5725 
  99   0.0000       0.062649         1.7048 
 100   0.0000       0.065095         1.7713 
 101   0.0000       0.066152         1.8001 
 102   0.0000       0.072977         1.9858 
 103   0.0000       0.073086         1.9888 
 104   0.0000       0.073686         2.0051 
 105   0.0000       0.085883         2.3370 
 106   0.0000       0.086697         2.3591 
 107   0.0000       0.091507         2.4900 
 108   0.0000       0.095009         2.5853 
 109   0.0000       0.101791         2.7699 
 110   0.0000       0.107945         2.9373 
 111   0.0000       0.111008         3.0207 
 112   0.0000       0.114831         3.1247 
 113   0.0000       0.116001         3.1565 
 114   0.0000       0.117489         3.1970 
 115   0.0000       0.124527         3.3886 
 116   0.0000       0.128489         3.4964 
 117   0.0000       0.140375         3.8198 
 118   0.0000       0.142297         3.8721 
 119   0.0000       0.149445         4.0666 
 120   0.0000       0.152581         4.1519 
 121   0.0000       0.153578         4.1791 
 122   0.0000       0.159963         4.3528 
 123   0.0000       0.163752         4.4559 
 124   0.0000       0.164640         4.4801 
 125   0.0000       0.174095         4.7374 
 126   0.0000       0.174664         4.7529 
 127   0.0000       0.180115         4.9012 
 128   0.0000       0.192502         5.2382 
 129   0.0000       0.194682         5.2976 
 130   0.0000       0.203423         5.5354 
 131   0.0000       0.204479         5.5642 
 132   0.0000       0.207488         5.6460 
 133   0.0000       0.209707         5.7064 
 134   0.0000       0.213522         5.8102 
 135   0.0000       0.217506         5.9186 
 136   0.0000       0.224277         6.1029 
 137   0.0000       0.227177         6.1818 
 138   0.0000       0.238052         6.4777 
 139   0.0000       0.242382         6.5956 
 140   0.0000       0.244436         6.6514 
 141   0.0000       0.248260         6.7555 
 142   0.0000       0.249250         6.7824 
 143   0.0000       0.249376         6.7859 
 144   0.0000       0.262239         7.1359 
 145   0.0000       0.265769         7.2319 
 146   0.0000       0.272202         7.4070 
 147   0.0000       0.274277         7.4635 
 148   0.0000       0.277883         7.5616 
 149   0.0000       0.280804         7.6411 
 150   0.0000       0.288898         7.8613 
 151   0.0000       0.289461         7.8766 
 152   0.0000       0.293827         7.9954 
 153   0.0000       0.297163         8.0862 
 154   0.0000       0.297450         8.0940 
 155   0.0000       0.304066         8.2741 
 156   0.0000       0.305452         8.3118 
 157   0.0000       0.311780         8.4840 
 158   0.0000       0.312666         8.5081 
 159   0.0000       0.315577         8.5873 
 160   0.0000       0.322384         8.7725 
 161   0.0000       0.331456         9.0194 
 162   0.0000       0.337079         9.1724 
 163   0.0000       0.343986         9.3603 
 164   0.0000       0.351013         9.5515 
 165   0.0000       0.354617         9.6496 
 166   0.0000       0.360041         9.7972 
 167   0.0000       0.361555         9.8384 
 168   0.0000       0.368837        10.0366 
 169   0.0000       0.375095        10.2068 
 170   0.0000       0.375563        10.2196 
 171   0.0000       0.384507        10.4630 
 172   0.0000       0.388318        10.5667 
 173   0.0000       0.393423        10.7056 
 174   0.0000       0.396547        10.7906 
 175   0.0000       0.400670        10.9028 
 176   0.0000       0.406737        11.0679 
 177   0.0000       0.415668        11.3109 
 178   0.0000       0.418803        11.3962 
 179   0.0000       0.421022        11.4566 
 180   0.0000       0.421755        11.4765 
 181   0.0000       0.429429        11.6854 
 182   0.0000       0.431073        11.7301 
 183   0.0000       0.434942        11.8354 
 184   0.0000       0.438314        11.9271 
 185   0.0000       0.439758        11.9664 
 186   0.0000       0.441504        12.0139 
 187   0.0000       0.445281        12.1167 
 188   0.0000       0.446401        12.1472 
 189   0.0000       0.449430        12.2296 
 190   0.0000       0.452301        12.3077 
 191   0.0000       0.455802        12.4030 
 192   0.0000       0.461321        12.5532 
 193   0.0000       0.464209        12.6318 
 194   0.0000       0.465172        12.6580 
 195   0.0000       0.472366        12.8537 
 196   0.0000       0.473828        12.8935 
 197   0.0000       0.479846        13.0573 
 198   0.0000       0.487604        13.2684 
 199   0.0000       0.492787        13.4094 
 200   0.0000       0.493630        13.4324 
 201   0.0000       0.493952        13.4411 
 202   0.0000       0.495913        13.4945 
 203   0.0000       0.498367        13.5613 
 204   0.0000       0.501425        13.6445 
 205   0.0000       0.504631        13.7317 
 206   0.0000       0.508990        13.8503 
 207   0.0000       0.512828        13.9548 
 208   0.0000       0.514733        14.0066 
 209   0.0000       0.515058        14.0154 
 210   0.0000       0.521884        14.2012 
 211   0.0000       0.522184        14.2093 
 212   0.0000       0.524023        14.2594 
 213   0.0000       0.530816        14.4442 
 214   0.0000       0.531612        14.4659 
 215   0.0000       0.532421        14.4879 
 216   0.0000       0.542342        14.7579 
 217   0.0000       0.546053        14.8588 
 218   0.0000       0.548047        14.9131 
 219   0.0000       0.548554        14.9269 
 220   0.0000       0.549113        14.9421 
 221   0.0000       0.550517        14.9803 
 222   0.0000       0.554489        15.0884 
 223   0.0000       0.564616        15.3640 
 224   0.0000       0.565971        15.4008 
 225   0.0000       0.571088        15.5401 
 226   0.0000       0.573729        15.6120 
 227   0.0000       0.579056        15.7569 
 228   0.0000       0.582504        15.8507 
 229   0.0000       0.590213        16.0605 
 230   0.0000       0.590678        16.0732 
 231   0.0000       0.590930        16.0800 
 232   0.0000       0.606809        16.5121 
 233   0.0000       0.611939        16.6517 
 234   0.0000       0.612082        16.6556 
 235   0.0000       0.618108        16.8196 
 236   0.0000       0.621999        16.9255 
 237   0.0000       0.623816        16.9749 
 238   0.0000       0.633293        17.2328 
 239   0.0000       0.633448        17.2370 
 240   0.0000       0.640461        17.4278 
 241   0.0000       0.651289        17.7225 
 242   0.0000       0.656471        17.8635 
 243   0.0000       0.660104        17.9624 
 244   0.0000       0.665779        18.1168 
 245   0.0000       0.673771        18.3343 
 246   0.0000       0.683245        18.5920 
 247   0.0000       0.690982        18.8026 
 248   0.0000       0.695810        18.9339 
 249   0.0000       0.700271        19.0553 
 250   0.0000       0.705026        19.1847 
 251   0.0000       0.710985        19.3469 
 252   0.0000       0.722166        19.6511 
 253   0.0000       0.731308        19.8999 
 254   0.0000       0.731715        19.9110 
 255   0.0000       0.733399        19.9568 
 256   0.0000       0.737732        20.0747 
 257   0.0000       0.749128        20.3848 
 258   0.0000       0.756741        20.5920 
 259   0.0000       0.766942        20.8696 
 260   0.0000       0.778163        21.1749 
 261   0.0000       0.779300        21.2058 
 262   0.0000       0.789325        21.4786 
 263   0.0000       0.790736        21.5170 
 264   0.0000       0.792252        21.5583 
 265   0.0000       0.799878        21.7658 
 266   0.0000       0.806702        21.9515 
 267   0.0000       0.812196        22.1010 
 268   0.0000       0.812606        22.1121 
 269   0.0000       0.822464        22.3804 
 270   0.0000       0.828725        22.5508 
 271   0.0000       0.832575        22.6555 
 272   0.0000       0.838344        22.8125 
 273   0.0000       0.845207        22.9993 
 274   0.0000       0.846624        23.0378 
 275   0.0000       0.848296        23.0833 
 276   0.0000       0.852639        23.2015 
 277   0.0000       0.856209        23.2986 
 278   0.0000       0.865948        23.5636 
 279   0.0000       0.866581        23.5809 
 280   0.0000       0.871593        23.7172 
 281   0.0000       0.884513        24.0688 
 282   0.0000       0.892339        24.2818 
 283   0.0000       0.896820        24.4037 
 284   0.0000       0.901845        24.5405 
 285   0.0000       0.903088        24.5743 
 286   0.0000       0.915326        24.9073 
 287   0.0000       0.916574        24.9412 
 288   0.0000       0.920083        25.0367 
 289   0.0000       0.924828        25.1658 
 290   0.0000       0.927919        25.2500 
 291   0.0000       0.934059        25.4170 
 292   0.0000       0.937417        25.5084 
 293   0.0000       0.948920        25.8214 
 294   0.0000       0.951171        25.8827 
 295   0.0000       0.962287        26.1852 
 296   0.0000       0.968782        26.3619 
 297   0.0000       0.970090        26.3975 
 298   0.0000       0.984048        26.7773 
 299   0.0000       0.984946        26.8017 
 300   0.0000       0.991841        26.9894 
 301   0.0000       0.998280        27.1646 
 302   0.0000       1.002200        27.2713 
 303   0.0000       1.009713        27.4757 
 304   0.0000       1.018386        27.7117 
 305   0.0000       1.019138        27.7322 
 306   0.0000       1.026666        27.9370 
 307   0.0000       1.029643        28.0180 
 308   0.0000       1.041908        28.3518 
 309   0.0000       1.047211        28.4961 
 310   0.0000       1.053414        28.6649 
 311   0.0000       1.070795        29.1378 
 312   0.0000       1.072480        29.1837 
 313   0.0000       1.080947        29.4141 
 314   0.0000       1.081355        29.4252 
 315   0.0000       1.091772        29.7086 
 316   0.0000       1.097246        29.8576 
 317   0.0000       1.100169        29.9371 
 318   0.0000       1.124754        30.6061 
 319   0.0000       1.130414        30.7601 
 320   0.0000       1.131106        30.7790 
 321   0.0000       1.141492        31.0616 
 322   0.0000       1.148830        31.2612 
 323   0.0000       1.153876        31.3986 
 324   0.0000       1.154822        31.4243 
 325   0.0000       1.173058        31.9205 
 326   0.0000       1.175400        31.9843 
 327   0.0000       1.176433        32.0124 
 328   0.0000       1.182008        32.1641 
 329   0.0000       1.191253        32.4156 
 330   0.0000       1.192889        32.4602 
 331   0.0000       1.203149        32.7394 
 332   0.0000       1.207163        32.8486 
 333   0.0000       1.216482        33.1022 
 334   0.0000       1.231140        33.5010 
 335   0.0000       1.243054        33.8252 
 336   0.0000       1.247430        33.9443 
 337   0.0000       1.248071        33.9617 
 338   0.0000       1.257753        34.2252 
 339   0.0000       1.267096        34.4794 
 340   0.0000       1.267742        34.4970 
 341   0.0000       1.270401        34.5694 
 342   0.0000       1.277489        34.7622 
 343   0.0000       1.295174        35.2435 
 344   0.0000       1.298438        35.3323 
 345   0.0000       1.309113        35.6228 
 346   0.0000       1.322633        35.9907 
 347   0.0000       1.330236        36.1976 
 348   0.0000       1.339763        36.4568 
 349   0.0000       1.340274        36.4707 
 350   0.0000       1.344773        36.5931 
 351   0.0000       1.350457        36.7478 
 352   0.0000       1.359785        37.0016 
 353   0.0000       1.370362        37.2895 
 354   0.0000       1.376005        37.4430 
 355   0.0000       1.383529        37.6477 
 356   0.0000       1.384246        37.6672 
 357   0.0000       1.394379        37.9430 
 358   0.0000       1.397935        38.0397 
 359   0.0000       1.400656        38.1138 
 360   0.0000       1.402485        38.1636 
 361   0.0000       1.415305        38.5124 
 362   0.0000       1.420919        38.6652 
 363   0.0000       1.421486        38.6806 
 364   0.0000       1.425735        38.7962 
 365   0.0000       1.434485        39.0343 
 366   0.0000       1.436409        39.0867 
 367   0.0000       1.443786        39.2874 
 368   0.0000       1.446732        39.3676 
 369   0.0000       1.457821        39.6693 
 370   0.0000       1.461489        39.7691 
 371   0.0000       1.479147        40.2496 
 372   0.0000       1.491703        40.5913 
 373   0.0000       1.496403        40.7192 
 374   0.0000       1.507527        41.0219 
 375   0.0000       1.510014        41.0896 
 376   0.0000       1.514645        41.2156 
 377   0.0000       1.526420        41.5360 
 378   0.0000       1.531853        41.6838 
 379   0.0000       1.545098        42.0442 
 380   0.0000       1.552057        42.2336 
 381   0.0000       1.565808        42.6078 
 382   0.0000       1.566479        42.6261 
 383   0.0000       1.576537        42.8998 
 384   0.0000       1.598082        43.4860 
 385   0.0000       1.602888        43.6168 
 386   0.0000       1.616283        43.9813 
 387   0.0000       1.619843        44.0782 
 388   0.0000       1.622132        44.1404 
 389   0.0000       1.642733        44.7010 
 390   0.0000       1.644347        44.7450 
 391   0.0000       1.650385        44.9093 
 392   0.0000       1.651587        44.9420 
 393   0.0000       1.655642        45.0523 
 394   0.0000       1.658553        45.1315 
 395   0.0000       1.663939        45.2781 
 396   0.0000       1.665339        45.3162 
 397   0.0000       1.671640        45.4876 
 398   0.0000       1.672144        45.5013 
 399   0.0000       1.681543        45.7571 
 400   0.0000       1.687196        45.9110 
 401   0.0000       1.696616        46.1673 
 402   0.0000       1.703161        46.3454 
 403   0.0000       1.708839        46.4999 
 404   0.0000       1.712090        46.5883 
 405   0.0000       1.714189        46.6455 
 406   0.0000       1.723356        46.8949 
 407   0.0000       1.738433        47.3052 
 408   0.0000       1.744804        47.4785 
 409   0.0000       1.746375        47.5213 
 410   0.0000       1.748783        47.5868 
 411   0.0000       1.754034        47.7297 
 412   0.0000       1.760501        47.9057 
 413   0.0000       1.763706        47.9929 
 414   0.0000       1.770335        48.1733 
[...]
sum of MP2 pair energies for pairs that were not kept ...      -0.017107206797 Eh
sum of PNO error estimates for the kept pairs         ...      -0.012023078383 Eh
                                                          --------------------
sum of all corrections                                         -0.029144814626
Initial total correlation energy                               -3.977057074052
Thresholds for map construction and integral transformation for fine MP2 and CCSD(T) calculation:
   TCutMKN   ...     1.0e-03
   TCutDO    ...     1.0e-02
   TCutPairs ...     1.0e-04
   TCutCMO   ...     1.0e-03
   TCutCPAO  ...     1.0e-03

Thresholds for map construction and integral transformation for strong Triples:
   TCutMKN   ...     1.0e-02
   TCutDO    ...     2.0e-02
   TCutCMO   ...     1.0e-03
   TCutCPAO  ...     1.0e-03

Thresholds for map construction and integral transformation for weak Triples:
   TCutMKN   ...     1.0e-01
   TCutDO    ...     4.0e-02
   TCutCMO   ...     1.0e-03
   TCutCPAO  ...     1.0e-03

--------------------------------
LOCAL RI TRANSFORMATION (IAVPAO)
--------------------------------

Orbital window:      25 to 90
Number of PAOs:     949
Basis functions:    949 (391 shells)
Aux. functions:    2335 (753 shells)
Use SHARK:           on

Processing maps (0.0 sec)
Average map sizes:
   Aux shells -> MOs              46.9
   Aux shells -> PAOs            949.0
   MOs        -> AO shells       297.6
   PAOs       -> AO shells       363.9

Calculating integrals (11.3 sec, 800.622 MB)
Sorting integrals (2.1 sec, 749.991 MB)
Total time for the integral transformation: 13.6 sec
--------------------------------
INITIAL GUESS AND PNO GENERATION
--------------------------------

PNO truncation parameters                   .... 
    PAOOverlapThresh   =        1.000e-08

    TCutPairs          =        1.000e-04
    TCutPNO            =        3.330e-07
    TCutPNOSingles     =        9.990e-09
    TCutMP2Pairs       =        1.000e-05
    TCutMKN            =        1.000e-03
    TCutDO             =        1.000e-02

Pair selection                          .... not used
Type of local MP2 treatment                 .... semi-local MP2
Strategy for PNO selection                  .... occupation number selection
Pair density normalization                  .... MP2 norm
Spin component scaling                      .... not used

   .... Finished loop over pairs

 PNO Occupation Number Statistics: 
  | Av. % of trace(Dij) retained        ...  97.492379325121
  | sigma^2 in % of trace(Dij) retained ...   6.97e+00
  | Av. % of trace(Di) retained         ...  99.999044700598
  | sigma^2 in % of trace(Di) retained  ...   1.01e-07
 Distributions of % trace(Dij) recovered:
  |       >= 99.9  ...   206 ( 17.9 % of all pairs)
  |   [80.0, 90.0) ...    18 (  1.6 % of all pairs)
  |   [90.0, 99.0) ...   656 ( 57.0 % of all pairs)
  |   [99.0, 99.9) ...   270 ( 23.5 % of all pairs)
 Distributions of % trace(Di) recovered :
  |       >= 99.9  ...    66 (100.0 % of all I-pairs )

Making pair pair interaction lists          ... done

                       ===========================
                        728 OF 1150 PAIRS ARE KEPT
                       ===========================

Total time spent in the initial guess                 ...    58.429 sec
SL-MP2 correlation energy (all non-screened pairs)    ...      -3.978429009374 Eh

Initial PNO correlation energy                        ...      -3.951300642219 Eh
sum of pair energies estimated for screened out pairs ...      -0.002027025723 Eh
sum of MP2 pair energies for pairs that were not kept ...      -0.015129225340 Eh
sum of PNO error estimates for the kept pairs         ...      -0.012092779735 Eh
                                                          --------------------
sum of all corrections                                         -0.029249030798
Initial total correlation energy                               -3.980549673017
Thresholds for map construction and integral transformation for fine MP2 and CCSD(T) calculation:
   TCutMKN   ...     1.0e-03
   TCutDO    ...     1.0e-02
   TCutPairs ...     1.0e-04
   TCutCMO   ...     1.0e-03
   TCutCPAO  ...     1.0e-03

Time for aux screen maps:            0.014
Time for maps after fine MP2:            0.094
-----------------------------
LOCAL RI TRANSFORMATION (IJV)
-----------------------------

Orbital window:      25 to 90
Basis functions:    949 (391 shells)
Aux. functions:    2335 (753 shells)
Use SHARK:           on

Processing maps (0.0 sec)
Average map sizes:
   Aux shells -> MOs(i)           38.5
   Aux shells -> MOs(j)           66.0
   MOs        -> AO shells       297.6

Calculating integrals (9.2 sec, 46.053 MB)
Sorting integrals (0.2 sec, 44.670 MB)
Total time for the integral transformation: 9.4 sec
--------------------------------
LOCAL RI TRANSFORMATION (VABPAO)
--------------------------------

Number of PAOs:     949
Basis functions:    949 (391 shells)
Aux. functions:    2335 (753 shells)
Use SHARK:           on

Processing maps (0.0 sec)
Average map sizes:
   Aux shells -> PAOs            765.3
   PAOs       -> AO shells       363.9

Calculating integrals (35.8 sec, 10919.427 MB)
Finished


-------------------------------------
Pair Pair Term precalculation with     
RI-(ij|mn) and (im|jn) transformation  
ON THE FLY                             
-------------------------------------

   IBatch   1 (of   7)              ... done (   43.328 sec)
   IBatch   2 (of   7)              ... done (   55.947 sec)
   IBatch   3 (of   7)              ... done (   69.385 sec)
   IBatch   4 (of   7)              ... done (   68.162 sec)
   IBatch   5 (of   7)              ... done (   84.474 sec)
   IBatch   6 (of   7)              ... done (  107.825 sec)
   IBatch   7 (of   7)              ... done (  130.674 sec)
Total EXT                           ...         559.797 sec

---------------------
RI-PNO TRANSFORMATION
---------------------

Total Number of PNOs                   ... 23266
Average number of PNOs per pair        ...    31
Maximal number of PNOs per pair        ...    80
   #pairs with  1 -  5 PNOs   :    0
   #pairs with  6 - 10 PNOs   :   24
   #pairs with 11 - 15 PNOs   :   99
   #pairs with 16 - 20 PNOs   :  109
   #pairs with 21 - 25 PNOs   :   47
   #pairs with 26 - 30 PNOs   :   85
   #pairs with 31 - 35 PNOs   :   98
   #pairs with 36 - 40 PNOs   :   58
   #pairs with 41 - 45 PNOs   :   55
   #pairs with 46 - 50 PNOs   :   79
   #pairs with 51 - 55 PNOs   :    9
   #pairs with 56 - 60 PNOs   :   23
   #pairs with 61 - 65 PNOs   :   12
   #pairs with 71 - 75 PNOs   :   23
   #pairs with 76 - 80 PNOs   :    7

Generation of (ij|ab)[P] integrals            ... on
Generation of (ia|bc)[P],(ja|bc)[P] integrals ... on
Storage of 3 and 4 external integrals         ... on
Generation of ALL (ka|bc)[P] integrals        ... on
Keep RI integrals in memory                   ... off

Ibatch:  1 (of  1)
Starting 2-4 index PNO integral generation ... done

Timings:
Total PNO integral transformation time     ...        256.969 sec
Size of the 3-external file                ...       342 MB
Size of the 4-external file                ...      2325 MB
Size of the IKJL file                      ...         0 MB
Size of the all 3-external file            ...      7160 MB
Size of the 1-external file                ...        23 MB

Making pair/pair overlap matrices          ... done (   50.070 sec)
Size of the pair overlap file              ... 2173 MB
Redoing the guess amplitudes               ... done (    0.042 sec)

-------------------------
FINAL STARTUP INFORMATION
-------------------------

E(0)                                       ...  -1033.916648551
E(SL-MP2)                                  ...     -3.978429009
E(SL-MP2) including corrections            ...     -3.980549673
Initial E(tot)                             ...  -1037.897198224
<T|T>                                      ...      1.173230947
Number of pairs included                   ... 728
Total number of pairs                      ... 2211

------------------------------------------------
                  RHF COUPLED CLUSTER ITERATIONS
------------------------------------------------

Number of PNO amplitudes to be optimized   ...       931774
Number of non-PNO amplitudes               ...    535927392
Untruncated number of regular amplitudes   ...   1627658604

Iter       E(tot)           E(Corr)          Delta-E          Residual     Time
  0  -1037.897288626     -3.951391045      0.027037965      0.016963115   55.19
                           *** Turning on DIIS ***
  1  -1038.060431587     -4.114534005     -0.163142960      0.009128210   52.09
  2  -1038.165477131     -4.219579549     -0.105045544      0.004578481   51.98
  3  -1038.183437929     -4.237540347     -0.017960798      0.002432838   58.07
  4  -1038.188389002     -4.242491420     -0.004951073      0.001304168   57.73
  5  -1038.189886704     -4.243989122     -0.001497702      0.000684583   55.51
  6  -1038.190340874     -4.244443292     -0.000454170      0.000269472   56.81
  7  -1038.190374891     -4.244477309     -0.000034017      0.000129782   58.58
  8  -1038.190388633     -4.244491051     -0.000013742      0.000067987   52.90
  9  -1038.190373501     -4.244475919      0.000015131      0.000037579   58.58
 10  -1038.190377028     -4.244479446     -0.000003527      0.000015921   57.17
 11  -1038.190375823     -4.244478241      0.000001205      0.000005105   57.97
 12  -1038.190376308     -4.244478726     -0.000000484      0.000001743   55.49
 13  -1038.190375983     -4.244478401      0.000000325      0.000000600   56.59
               --- The Coupled-Cluster iterations have converged ---

----------------------
COUPLED CLUSTER ENERGY
----------------------

E(0)                                       ...  -1033.916648551
E(CORR)(strong-pairs)                      ...     -4.244478401
E(CORR)(weak-pairs)                        ...     -0.029249031
E(CORR)(corrected)                         ...     -4.273727432
E(TOT)                                     ...  -1038.190375983
Singles Norm <S|S>**1/2                    ...      0.118170563  
T1 diagnostic                              ...      0.010285427  

------------------
LARGEST AMPLITUDES
------------------
  37-> 93  37-> 93       0.048513
  39-> 91  39-> 91       0.048309
  40-> 91  40-> 91       0.048245
  35-> 91  35-> 91       0.047640
  42-> 93  42-> 93       0.047206
  82-> 95  82-> 95       0.045594
  83-> 95  83-> 95       0.045484
  31-> 91  31-> 91       0.045327
  33-> 91  33-> 91       0.045317
  86-> 95  86-> 95       0.044905
  87-> 95  87-> 95       0.044512
  88-> 95  88-> 95       0.044437
  89-> 95  89-> 95       0.044094
  28-> 92  28-> 92       0.043901
  90-> 91  90-> 91       0.038430
  45-> 91  45-> 91       0.038397


-------------------------------------------
DLPNO BASED TRIPLES CORRECTION
-------------------------------------------

Singles multiplier          ...  1.000000
TCutTNO                     ... 1.000e-09
TCutMP2Pairs                ... 1.000e-05
TCutDOStrong                ... 2.000e-02
TCutMKNStrong               ... 1.000e-02
TCutDOWeak                  ... 4.000e-02
TCutMKNWeak                 ... 1.000e-01

Fragment selection                          .... not used
Fock matrix occ-virt block is zero --> Setting DT_in_Triples to false.
Number of Triples that are to be computed   ...      7729

 . . . . . . . . .             (    189.133 sec)
 . . . . . . . . .
10% done  
20% done               (    226.723 sec)
 . . . . . . . . .
30% done  
40% done               (    287.590 sec)
 . . . . . . . . .
50% done  
60% done  
70% done               (    376.578 sec)
 . . . . . . . . .
80% done  
90% done               (    199.652 sec)
Triples timings:
Total time for T0               ...  1378.627 sec
Total time for Iterative (T)    ...     0.000 sec
Total time of overall (T)       ...  1379.211 sec

Triples List generation         ...     0.000 sec
TNO generation                  ...    98.770 sec
Pair density generation         ...     0.034 sec
Look up tables                  ...     0.000 sec
Generating 3-index integrals    ...   895.341 sec
  Make 4-ind.int. from 3-ind.int...    84.715 sec
  Projecting amplitudes (D + S) ...   221.735 sec
  Downprojecting integrals      ...     0.014 sec
  Energy contr. (sum over a,b,c)...    17.154 sec
Fitting ET(->0)                 ...     0.000 sec

Everything after 3-index        ...   384.335 sec

Timing details:
 TNO integrals                  ...   969.822 sec
   Reading 3-index integrals    ...    56.021 sec
   Sorting integrals            ...   142.891 sec
       Sorting integrals 1      ...     0.012 sec
       Sorting integrals 2      ...   110.989 sec
       Sorting integrals 3      ...     6.112 sec
       Sorting integrals 4      ...     0.592 sec
       Sorting integrals 5      ...     1.652 sec
       Sorting integrals 6      ...    23.534 sec
   Calculating local VM**-1/2   ...     6.255 sec
   Orthogonal. integrals        ...     9.598 sec
   Multipl. 3-index integrals   ...   755.058 sec
   All concerning IRIab (w/TNO) ...    41.756 sec

 Calculate W0/W1                ...    60.654 sec
 W 3-ext contribution           ...    30.969 sec
 W 3-int contribution           ...    11.774 sec
 Sorting W                      ...    16.116 sec

 V exchange contribution        ...     4.737 sec

 Timings for Triples without generation
     of 3-index integrals       ...   384.309 sec
       0 weak pairs             ...   277.537 sec
       1 weak pair              ...   106.772 sec
       2 weak pairs             ...     0.000 sec
       3 weak pairs             ...     0.000 sec
  Extra time for extrapolation  ...     0.000 sec

Number of Triples   (0, 1, 2, 3 weak pairs; overall):   4517    3212       0       0  (  7729)
Number of Atoms     (0, 1, 2, 3 weak pairs; overall):   17.2    14.7     0.0     0.0  (    54)
Number of PAOs      (0, 1, 2, 3 weak pairs; overall):  366.1   331.4     0.0     0.0  (   949)
Number of AuxFcns   (0, 1, 2, 3 weak pairs; overall):  461.9   355.9     0.0     0.0  (  2335)
Number of TNOs      (0, 1, 2, 3 weak pairs         ):   86.1    57.9     0.0     0.0
Aver. Number of NTNO, Atoms, PAOs, AuxFcns / Triples:   7729    74.4    16.2   351.6   417.9

Triples Correction (T)                     ...     -0.192819515
Final correlation energy                   ...     -4.466546947
E(CCSD)                                    ...  -1038.190375983
E(CCSD(T))                                 ...  -1038.383195498



--------------------------------------------------------------------------------
                                    TIMINGS
--------------------------------------------------------------------------------


Total execution time                   ...     3552.438 sec

Localization of occupied MO's          ...        8.870 sec (  0.2%)
Fock Matrix Formation                  ...      281.364 sec (  7.9%)
Global overlap, Fock, MKN matrices     ...        2.030 sec (  0.1%)
Differential overlap integrals         ...        6.323 sec (  0.2%)
Organizing maps                        ...        0.267 sec (  0.0%)
RI 3-index integral generations        ...       73.695 sec (  2.1%)
RI-PNO integral transformation         ...      905.831 sec ( 25.5%)
Initial Guess                          ...      108.987 sec (  3.1%)
DIIS Solver                            ...        2.856 sec (  0.1%)
State Vector Update                    ...        0.123 sec (  0.0%)
Sigma-vector construction              ...      781.664 sec ( 22.0%)
  <0|H|D>                              ...        0.004 sec (  0.0% of sigma)
  <D|H|D>(0-ext)                       ...       56.722 sec (  7.3% of sigma)
  <D|H|D>(2-ext Fock)                  ...        0.281 sec (  0.0% of sigma)
  <D|H|D>(2-ext)                       ...      118.480 sec ( 15.2% of sigma)
  <D|H|D>(4-ext)                       ...       60.060 sec (  7.7% of sigma)
  <D|H|D>(4-ext-corr)                  ...      280.606 sec ( 35.9% of sigma)
  CCSD doubles correction              ...        1.653 sec (  0.2% of sigma)
  <S|H|S>                              ...       10.228 sec (  1.3% of sigma)
  <S|H|D>(1-ext)                       ...        5.289 sec (  0.7% of sigma)
  <D|H|S>(1-ext)                       ...        0.255 sec (  0.0% of sigma)
  <S|H|D>(3-ext)                       ...        2.858 sec (  0.4% of sigma)
  CCSD singles correction              ...        0.010 sec (  0.0% of sigma)
  Fock-dressing                        ...      186.848 sec ( 23.9% of sigma)
  Singles amplitudes                   ...        6.467 sec (  0.8% of sigma)
  (ik|jl)-dressing                     ...       33.722 sec (  4.3% of sigma)
  (ij|ab),(ia|jb)-dressing             ...       16.357 sec (  2.1% of sigma)
  Pair energies                        ...        0.061 sec (  0.0% of sigma)
Total Time for computing (T)           ...     1379.295 sec ( 38.8% of ALL)


Maximum memory used throughout the entire MDCI-calculation: 3456.0 MB

-------------------------   --------------------
FINAL SINGLE POINT ENERGY     -1038.383195497876
-------------------------   --------------------


                            ***************************************
                            *     ORCA property calculations      *
                            ***************************************


  WARNING: The energy has been calculated at the MDCI level but the densities
           used in the property calculations are still SCF densities
           MDCI response densities have not been calculated 
           use %mdci Density linearized end
           or  %mdci Density unrelaxed end
           or  %mdci Density orbopt end

                                    ---------------------
                                    Active property flags
                                    ---------------------
   (+) Dipole Moment


------------------------------------------------------------------------------
                       ORCA ELECTRIC PROPERTIES CALCULATION
------------------------------------------------------------------------------

Dipole Moment Calculation                       ... on
Quadrupole Moment Calculation                   ... off
Polarizability Calculation                      ... off
GBWName                                         ... Fentanyl_OProt_47.gbw
Electron density                                ... Fentanyl_OProt_47.scfp
The origin for moment calculation is the CENTER OF MASS  = ( 0.005174, -0.005327 -0.001620)

-------------
DIPOLE MOMENT
-------------
                                X             Y             Z
Electronic contribution:      0.50972      -3.68825      -0.26196
Nuclear contribution   :      5.78263       4.87508       0.14432
                        -----------------------------------------
Total Dipole Moment    :      6.29234       1.18683      -0.11764
                        -----------------------------------------
Magnitude (a.u.)       :      6.40437
Magnitude (Debye)      :     16.27862



--------------------
Rotational spectrum 
--------------------
 
Rotational constants in cm-1:     0.016289     0.002590     0.002414 
Rotational constants in MHz :   488.325591    77.658285    72.365646 

 Dipole components along the rotational axes: 
x,y,z [a.u.] :     6.218340     1.532389     0.000243 
x,y,z [Debye]:    15.805763     3.895024     0.000618 

 

Timings for individual modules:

Sum of individual times         ...     5809.069 sec (=  96.818 min)
GTO integral calculation        ...        3.631 sec (=   0.061 min)   0.1 %
SCF iterations                  ...     2250.124 sec (=  37.502 min)  38.7 %
MDCI module                     ...     3555.314 sec (=  59.255 min)  61.2 %
                             ****ORCA TERMINATED NORMALLY****
TOTAL RUN TIME: 0 days 1 hours 36 minutes 52 seconds 9 msec
