
Lmod is automatically replacing "intel/2020.1.217" with "gcc/10.3.0".


The following have been reloaded with a version change:
  1) gcccore/.9.3.0 => gcccore/.10.3.0        3) openmpi/4.0.3 => openmpi/4.1.1
  2) libfabric/1.10.1 => libfabric/1.12.1     4) ucx/1.8.0 => ucx/1.9.0

To execute ORCA, run: 
   ${EBROOTORCA}/orca orca.inp > orca.out
cp: cannot stat '/project/6006388/cieritan/Fentanyl_analogs/Fentanyl/O-Prot/CCSDT/*.hess': No such file or directory
cp: cannot stat '/project/6006388/cieritan/Fentanyl_analogs/Fentanyl/O-Prot/CCSDT/*.gbw': No such file or directory

                                 *****************
                                 * O   R   C   A *
                                 *****************

                                            #,                                       
                                            ###                                      
                                            ####                                     
                                            #####                                    
                                            ######                                   
                                           ########,                                 
                                     ,,################,,,,,                         
                               ,,#################################,,                 
                          ,,##########################################,,             
                       ,#########################################, ''#####,          
                    ,#############################################,,   '####,        
                  ,##################################################,,,,####,       
                ,###########''''           ''''###############################       
              ,#####''   ,,,,##########,,,,          '''####'''          '####       
            ,##' ,,,,###########################,,,                        '##       
           ' ,,###''''                  '''############,,,                           
         ,,##''                                '''############,,,,        ,,,,,,###''
      ,#''                                            '''#######################'''  
     '                                                          ''''####''''         
             ,#######,   #######,   ,#######,      ##                                
            ,#'     '#,  ##    ##  ,#'     '#,    #''#        ######   ,####,        
            ##       ##  ##   ,#'  ##            #'  '#       #        #'  '#        
            ##       ##  #######   ##           ,######,      #####,   #    #        
            '#,     ,#'  ##    ##  '#,     ,#' ,#      #,         ##   #,  ,#        
             '#######'   ##     ##  '#######'  #'      '#     #####' # '####'        



                  #######################################################
                  #                        -***-                        #
                  #          Department of theory and spectroscopy      #
                  #    Directorship and core code : Frank Neese         #
                  #        Max Planck Institute fuer Kohlenforschung    #
                  #                Kaiser Wilhelm Platz 1               #
                  #                 D-45470 Muelheim/Ruhr               #
                  #                      Germany                        #
                  #                                                     #
                  #                  All rights reserved                #
                  #                        -***-                        #
                  #######################################################


                         Program Version 5.0.4 -  RELEASE  -


 With contributions from (in alphabetic order):
   Daniel Aravena         : Magnetic Suceptibility
   Michael Atanasov       : Ab Initio Ligand Field Theory (pilot matlab implementation)
   Alexander A. Auer      : GIAO ZORA, VPT2 properties, NMR spectrum
   Ute Becker             : Parallelization
   Giovanni Bistoni       : ED, misc. LED, open-shell LED, HFLD
   Martin Brehm           : Molecular dynamics
   Dmytro Bykov           : SCF Hessian
   Vijay G. Chilkuri      : MRCI spin determinant printing, contributions to CSF-ICE
   Dipayan Datta          : RHF DLPNO-CCSD density
   Achintya Kumar Dutta   : EOM-CC, STEOM-CC
   Dmitry Ganyushin       : Spin-Orbit,Spin-Spin,Magnetic field MRCI
   Miquel Garcia          : C-PCM and meta-GGA Hessian, CC/C-PCM, Gaussian charge scheme
   Yang Guo               : DLPNO-NEVPT2, F12-NEVPT2, CIM, IAO-localization
   Andreas Hansen         : Spin unrestricted coupled pair/coupled cluster methods
   Benjamin Helmich-Paris : MC-RPA, TRAH-SCF, COSX integrals
   Lee Huntington         : MR-EOM, pCC
   Robert Izsak           : Overlap fitted RIJCOSX, COSX-SCS-MP3, EOM
   Marcus Kettner         : VPT2
   Christian Kollmar      : KDIIS, OOCD, Brueckner-CCSD(T), CCSD density, CASPT2, CASPT2-K
   Simone Kossmann        : Meta GGA functionals, TD-DFT gradient, OOMP2, MP2 Hessian
   Martin Krupicka        : Initial AUTO-CI
   Lucas Lang             : DCDCAS
   Marvin Lechner         : AUTO-CI (C++ implementation), FIC-MRCC
   Dagmar Lenk            : GEPOL surface, SMD
   Dimitrios Liakos       : Extrapolation schemes; Compound Job, initial MDCI parallelization
   Dimitrios Manganas     : Further ROCIS development; embedding schemes
   Dimitrios Pantazis     : SARC Basis sets
   Anastasios Papadopoulos: AUTO-CI, single reference methods and gradients
   Taras Petrenko         : DFT Hessian,TD-DFT gradient, ASA, ECA, R-Raman, ABS, FL, XAS/XES, NRVS
   Peter Pinski           : DLPNO-MP2, DLPNO-MP2 Gradient
   Christoph Reimann      : Effective Core Potentials
   Marius Retegan         : Local ZFS, SOC
   Christoph Riplinger    : Optimizer, TS searches, QM/MM, DLPNO-CCSD(T), (RO)-DLPNO pert. Triples
   Tobias Risthaus        : Range-separated hybrids, TD-DFT gradient, RPA, STAB
   Michael Roemelt        : Original ROCIS implementation
   Masaaki Saitow         : Open-shell DLPNO-CCSD energy and density
   Barbara Sandhoefer     : DKH picture change effects
   Avijit Sen             : IP-ROCIS
   Kantharuban Sivalingam : CASSCF convergence, NEVPT2, FIC-MRCI
   Bernardo de Souza      : ESD, SOC TD-DFT
   Georgi Stoychev        : AutoAux, RI-MP2 NMR, DLPNO-MP2 response
   Willem Van den Heuvel  : Paramagnetic NMR
   Boris Wezisla          : Elementary symmetry handling
   Frank Wennmohs         : Technical directorship


 We gratefully acknowledge several colleagues who have allowed us to
 interface, adapt or use parts of their codes:
   Stefan Grimme, W. Hujo, H. Kruse, P. Pracht,  : VdW corrections, initial TS optimization,
                  C. Bannwarth, S. Ehlert          DFT functionals, gCP, sTDA/sTD-DF
   Ed Valeev, F. Pavosevic, A. Kumar             : LibInt (2-el integral package), F12 methods
   Garnet Chan, S. Sharma, J. Yang, R. Olivares  : DMRG
   Ulf Ekstrom                                   : XCFun DFT Library
   Mihaly Kallay                                 : mrcc  (arbitrary order and MRCC methods)
   Jiri Pittner, Ondrej Demel                    : Mk-CCSD
   Frank Weinhold                                : gennbo (NPA and NBO analysis)
   Christopher J. Cramer and Donald G. Truhlar   : smd solvation model
   Lars Goerigk                                  : TD-DFT with DH, B97 family of functionals
   V. Asgeirsson, H. Jonsson                     : NEB implementation
   FAccTs GmbH                                   : IRC, NEB, NEB-TS, DLPNO-Multilevel, CI-OPT
                                                   MM, QMMM, 2- and 3-layer-ONIOM, Crystal-QMMM,
                                                   LR-CPCM, SF, NACMEs, symmetry and pop. for TD-DFT,
                                                   nearIR, NL-DFT gradient (VV10), updates on ESD,
                                                   ML-optimized integration grids
   S Lehtola, MJT Oliveira, MAL Marques          : LibXC Library
   Liviu Ungur et al                             : ANISO software


 Your calculation uses the libint2 library for the computation of 2-el integrals
 For citations please refer to: http://libint.valeyev.net

 Your ORCA version has been built with support for libXC version: 5.1.0
 For citations please refer to: https://tddft.org/programs/libxc/

 This ORCA versions uses:
   CBLAS   interface :  Fast vector & matrix operations
   LAPACKE interface :  Fast linear algebra routines
   SCALAPACK package :  Parallel linear algebra routines
   Shared memory     :  Shared parallel matrices
   BLAS/LAPACK       :  OpenBLAS 0.3.15  USE64BITINT DYNAMIC_ARCH NO_AFFINITY SkylakeX SINGLE_THREADED
        Core in use  :  SkylakeX
   Copyright (c) 2011-2014, The OpenBLAS Project


================================================================================

----- Orbital basis set information -----
Your calculation utilizes the basis: def2-TZVP
   F. Weigend and R. Ahlrichs, Phys. Chem. Chem. Phys. 7, 3297 (2005).

----- AuxC basis set information -----
Your calculation utilizes the auxiliary basis: def2-TZVP/C
  H-La, Hf-Rn : A. Hellweg, C. Hattig, S. Hofener and W. Klopper, Theor. Chem. Acc. 117, 587 (2007).
        Ce-Lu : J. Chmela and M. E. Harding, Mol. Phys. (2018).

================================================================================
                                        WARNINGS
                       Please study these warnings very carefully!
================================================================================


WARNING: Post HF methods need fully converged wavefunctions
  ===> : Setting SCFConvForced true
         You can overwrite this default with %scf ConvForced false 


WARNING: MDCI localization with Augmented Hessian Foster-Boys
  ===> : Switching off randomization!

INFO   : the flag for use of the SHARK integral package has been found!

================================================================================
                                       INPUT FILE
================================================================================
NAME = Fentanyl_OProt_39.inp
|  1> ! DLPNO-CCSD(T) def2-TZVP def2-TZVP/C VeryTightSCF
|  2> %maxcore 3400
|  3> 
|  4> %pal nprocs 8 
|  5> end
|  6> 
|  7> *xyz 1 1
|  8> O            -0.554058        -0.996972         1.329225
|  9> N            -2.059784         2.415804        -0.555307
| 10> N             1.146092        -0.155574         0.027092
| 11> C             0.369040         0.997970        -0.526345
| 12> C            -0.807500         0.522731        -1.385639
| 13> C             0.022639         2.003392         0.576934
| 14> C            -1.694333         1.707490        -1.761630
| 15> C            -0.916569         3.076235         0.030213
| 16> C            -3.304660         3.162913        -0.604286
| 17> C            -4.517519         2.217702        -0.581523
| 18> C             2.526323        -0.248817        -0.411801
| 19> C             0.669999        -1.024509         0.875179
| 20> C            -4.334707         1.132369         0.451101
| 21> C             1.481855        -2.136044         1.457542
| 22> C             2.818784        -0.955931        -1.568278
| 23> C             3.508997         0.415387         0.305034
| 24> C             1.942083        -1.775559         2.878391
| 25> C            -4.137369        -0.191158         0.067839
| 26> C            -4.283703         1.444153         1.808532
| 27> C             4.135223        -1.010128        -2.006556
| 28> C             4.822893         0.355846        -0.143034
| 29> C             5.134598        -0.356487        -1.294480
| 30> C            -3.875403        -1.179501         1.011922
| 31> C            -4.018330         0.464707         2.756068
| 32> C            -3.805345        -0.852166         2.360423
| 33> H             1.076588         1.488741        -1.196095
| 34> H            -1.439370        -0.203109        -0.869647
| 35> H            -0.415900         0.027202        -2.278339
| 36> H             0.948527         2.445733         0.955204
| 37> H            -0.479712         1.530309         1.424461
| 38> H            -1.174603         2.364321        -2.481466
| 39> H            -2.589959         1.333044        -2.257573
| 40> H            -1.244536         3.714823         0.851573
| 41> H            -0.382910         3.718422        -0.693003
| 42> H            -3.335403         3.794329         0.286469
| 43> H            -3.366560         3.833153        -1.475263
| 44> H            -4.671132         1.765212        -1.564360
| 45> H            -5.412659         2.809581        -0.371615
| 46> H             2.334557        -2.353110         0.818499
| 47> H             0.831893        -3.012820         1.487980
| 48> H             2.029351        -1.463486        -2.111689
| 49> H             3.251527         0.970796         1.199850
| 50> H             2.478982        -2.622182         3.306051
| 51> H             1.090184        -1.549434         3.521108
| 52> H             2.616210        -0.917327         2.867736
| 53> H            -4.198717        -0.456343        -0.983869
| 54> H            -4.453259         2.467360         2.130366
| 55> H             4.379613        -1.564432        -2.904969
| 56> H             5.602270         0.866958         0.409666
| 57> H             6.160700        -0.401478        -1.639972
| 58> H            -3.740319        -2.208309         0.694486
| 59> H            -3.990177         0.725601         3.808484
| 60> H            -3.609698        -1.620182         3.100335
| 61> H            -1.126048        -0.288937         0.989535
| 62> *
| 63> 
| 64> 
| 65>                          ****END OF INPUT****
================================================================================

                       ****************************
                       * Single Point Calculation *
                       ****************************

---------------------------------
CARTESIAN COORDINATES (ANGSTROEM)
---------------------------------
  O     -0.554058   -0.996972    1.329225
  N     -2.059784    2.415804   -0.555307
  N      1.146092   -0.155574    0.027092
  C      0.369040    0.997970   -0.526345
  C     -0.807500    0.522731   -1.385639
  C      0.022639    2.003392    0.576934
  C     -1.694333    1.707490   -1.761630
  C     -0.916569    3.076235    0.030213
  C     -3.304660    3.162913   -0.604286
  C     -4.517519    2.217702   -0.581523
  C      2.526323   -0.248817   -0.411801
  C      0.669999   -1.024509    0.875179
  C     -4.334707    1.132369    0.451101
  C      1.481855   -2.136044    1.457542
  C      2.818784   -0.955931   -1.568278
  C      3.508997    0.415387    0.305034
  C      1.942083   -1.775559    2.878391
  C     -4.137369   -0.191158    0.067839
  C     -4.283703    1.444153    1.808532
  C      4.135223   -1.010128   -2.006556
  C      4.822893    0.355846   -0.143034
  C      5.134598   -0.356487   -1.294480
  C     -3.875403   -1.179501    1.011922
  C     -4.018330    0.464707    2.756068
  C     -3.805345   -0.852166    2.360423
  H      1.076588    1.488741   -1.196095
  H     -1.439370   -0.203109   -0.869647
  H     -0.415900    0.027202   -2.278339
  H      0.948527    2.445733    0.955204
  H     -0.479712    1.530309    1.424461
  H     -1.174603    2.364321   -2.481466
  H     -2.589959    1.333044   -2.257573
  H     -1.244536    3.714823    0.851573
  H     -0.382910    3.718422   -0.693003
  H     -3.335403    3.794329    0.286469
  H     -3.366560    3.833153   -1.475263
  H     -4.671132    1.765212   -1.564360
  H     -5.412659    2.809581   -0.371615
  H      2.334557   -2.353110    0.818499
  H      0.831893   -3.012820    1.487980
  H      2.029351   -1.463486   -2.111689
  H      3.251527    0.970796    1.199850
  H      2.478982   -2.622182    3.306051
  H      1.090184   -1.549434    3.521108
  H      2.616210   -0.917327    2.867736
  H     -4.198717   -0.456343   -0.983869
  H     -4.453259    2.467360    2.130366
  H      4.379613   -1.564432   -2.904969
  H      5.602270    0.866958    0.409666
  H      6.160700   -0.401478   -1.639972
  H     -3.740319   -2.208309    0.694486
  H     -3.990177    0.725601    3.808484
  H     -3.609698   -1.620182    3.100335
  H     -1.126048   -0.288937    0.989535

----------------------------
CARTESIAN COORDINATES (A.U.)
----------------------------
  NO LB      ZA    FRAG     MASS         X           Y           Z
   0 O     8.0000    0    15.999   -1.047018   -1.884004    2.511871
   1 N     7.0000    0    14.007   -3.892428    4.565208   -1.049378
   2 N     7.0000    0    14.007    2.165800   -0.293992    0.051196
   3 C     6.0000    0    12.011    0.697385    1.885890   -0.994648
   4 C     6.0000    0    12.011   -1.525954    0.987818   -2.618478
   5 C     6.0000    0    12.011    0.042782    3.785862    1.090247
   6 C     6.0000    0    12.011   -3.201825    3.226688   -3.328998
   7 C     6.0000    0    12.011   -1.732064    5.813242    0.057094
   8 C     6.0000    0    12.011   -6.244902    5.977039   -1.141935
   9 C     6.0000    0    12.011   -8.536874    4.190849   -1.098919
  10 C     6.0000    0    12.011    4.774059   -0.470196   -0.778191
  11 C     6.0000    0    12.011    1.266115   -1.936041    1.653849
  12 C     6.0000    0    12.011   -8.191409    2.139867    0.852457
  13 C     6.0000    0    12.011    2.800300   -4.036538    2.754355
  14 C     6.0000    0    12.011    5.326730   -1.806448   -2.963616
  15 C     6.0000    0    12.011    6.631043    0.784968    0.576431
  16 C     6.0000    0    12.011    3.670005   -3.355320    5.439371
  17 C     6.0000    0    12.011   -7.818494   -0.361236    0.128197
  18 C     6.0000    0    12.011   -8.095026    2.729054    3.417630
  19 C     6.0000    0    12.011    7.814439   -1.908865   -3.791841
  20 C     6.0000    0    12.011    9.113947    0.672451   -0.270295
  21 C     6.0000    0    12.011    9.702984   -0.673663   -2.446213
  22 C     6.0000    0    12.011   -7.323450   -2.228934    1.912255
  23 C     6.0000    0    12.011   -7.593543    0.878169    5.208214
  24 C     6.0000    0    12.011   -7.191060   -1.610360    4.460553
  25 H     1.0000    0     1.008    2.034456    2.813313   -2.260292
  26 H     1.0000    0     1.008   -2.720015   -0.383820   -1.643395
  27 H     1.0000    0     1.008   -0.785937    0.051404   -4.305437
  28 H     1.0000    0     1.008    1.792456    4.621766    1.805074
  29 H     1.0000    0     1.008   -0.906524    2.891865    2.691841
  30 H     1.0000    0     1.008   -2.219678    4.467919   -4.689291
  31 H     1.0000    0     1.008   -4.894313    2.519088   -4.266195
  32 H     1.0000    0     1.008   -2.351832    7.019998    1.609240
  33 H     1.0000    0     1.008   -0.723595    7.026799   -1.309586
  34 H     1.0000    0     1.008   -6.302998    7.170243    0.541348
  35 H     1.0000    0     1.008   -6.361876    7.243609   -2.787843
  36 H     1.0000    0     1.008   -8.827160    3.335767   -2.956212
  37 H     1.0000    0     1.008  -10.228443    5.309339   -0.702251
  38 H     1.0000    0     1.008    4.411673   -4.446733    1.546739
  39 H     1.0000    0     1.008    1.572050   -5.693405    2.811875
  40 H     1.0000    0     1.008    3.834918   -2.765588   -3.990514
  41 H     1.0000    0     1.008    6.144496    1.834539    2.267388
  42 H     1.0000    0     1.008    4.684597   -4.955206    6.247531
  43 H     1.0000    0     1.008    2.060149   -2.928006    6.653930
  44 H     1.0000    0     1.008    4.943920   -1.733497    5.419236
  45 H     1.0000    0     1.008   -7.934425   -0.862363   -1.859243
  46 H     1.0000    0     1.008   -8.415440    4.662635    4.025808
  47 H     1.0000    0     1.008    8.276269   -2.956348   -5.489596
  48 H     1.0000    0     1.008   10.586756    1.638313    0.774157
  49 H     1.0000    0     1.008   11.642036   -0.758683   -3.099098
  50 H     1.0000    0     1.008   -7.068179   -4.173099    1.312388
  51 H     1.0000    0     1.008   -7.540342    1.371187    7.196992
  52 H     1.0000    0     1.008   -6.821341   -3.061700    5.858784
  53 H     1.0000    0     1.008   -2.127922   -0.546012    1.869950

--------------------------------
INTERNAL COORDINATES (ANGSTROEM)
--------------------------------
 O      0   0   0     0.000000000000     0.00000000     0.00000000
 N      1   0   0     4.179199884221     0.00000000     0.00000000
 N      1   2   0     2.300871784040    73.28599023     0.00000000
 C      3   1   2     1.496918863402    96.16920963   359.26553847
 C      4   3   1     1.532476641635   111.52248218   295.81742636
 C      4   3   1     1.532348394696   110.90236974    66.32792383
 C      2   1   3     1.445848656093    83.40262353    57.38244935
 C      2   1   3     1.444279513247    84.57268032   305.21991331
 C      2   1   3     1.452682709919   138.06760156   179.70614832
 C      9   2   1     1.537845552249   111.05423698   322.03907999
 C      3   1   2     1.451330057519   148.25131746   177.05883401
 C      3   1   2     1.304210158848    28.19036528   178.51828680
 C     10   9   2     1.509198553408   110.89182983    44.22130889
 C     12   3   1     1.494579166431   123.40722451   181.70761884
 C     11   3   1     1.386716516468   119.04711218    93.54696175
 C     11   3   1     1.385881510490   119.15118864   270.96653129
 C     14  12   3     1.536415024663   110.39928638   100.58860751
 C     13  10   9     1.391961122524   120.83512110   249.13272453
 C     13  10   9     1.393710726956   120.66140844    65.45814027
 C     15  11   3     1.388537561902   118.88725046   178.13409817
 C     16  11   3     1.389472116352   118.89196447   181.93177367
 C     21  16  11     1.389390586131   120.09008060     0.23229805
 C     18  13  10     1.391668344719   121.00891185   175.46480170
 C     19  13  10     1.388366582478   120.92351912   184.75075929
 C     23  18  13     1.389428397792   120.03828294   359.90295711
 H      4   3   1     1.090892024558   103.70857999   180.94321498
 H      5   4   3     1.091948325959   112.67066333    52.04360419
 H      5   4   3     1.093532276543   108.86489476   293.56225239
 H      6   4   3     1.093628063706   108.84656608    65.19410219
 H      6   4   3     1.092916313273   112.22382877   306.68307377
 H      7   2   1     1.104404863425   111.80181514   224.95471082
 H      7   2   1     1.090098710228   109.88867744   106.14481105
 H      8   2   1     1.090866277980   109.56989125   252.72715537
 H      8   2   1     1.104643586822   112.50820993   133.41817546
 H      9   2   1     1.092280077238   107.09301202    80.61156261
 H      9   2   1     1.100751653248   112.83131975   198.03669844
 H     10   9   2     1.092846156803   110.61172712   282.47137341
 H     10   9   2     1.093461356750   108.40785588   166.21679565
 H     14  12   3     1.087471519171   110.20658450   337.84262030
 H     14  12   3     1.091839378052   106.54211353   219.92401369
 H     15  11   3     1.084487000584   120.19927537   357.58110585
 H     16  11   3     1.084188928203   120.26686050     1.93036035
 H     17  14  12     1.089919316248   109.15767534   176.55972018
 H     17  14  12     1.090848093877   111.07426827    57.17197190
 H     17  14  12     1.091385773674   111.13085412   295.67347124
 H     18  13  10     1.086359230914   119.38360918   354.86694928
 H     19  13  10     1.085946096978   119.58522304     4.71754420
 H     20  15  11     1.083570632255   119.70281992   179.59581281
 H     21  16  11     1.083577996580   119.69902517   180.25010795
 H     22  21  16     1.083639343393   119.86413221   180.07280093
 H     23  18  13     1.085107921829   119.88884776   179.01482883
 H     24  19  13     1.084637131810   119.83338863   180.45968749
 H     25  23  18     1.084249091588   120.30071137   179.48890175
 H      1   2   3     0.971532509711    15.22182442   189.29555204

---------------------------
INTERNAL COORDINATES (A.U.)
---------------------------
 O      0   0   0     0.000000000000     0.00000000     0.00000000
 N      1   0   0     7.897543240094     0.00000000     0.00000000
 N      1   2   0     4.348017541103    73.28599023     0.00000000
 C      3   1   2     2.828766696531    96.16920963   359.26553847
 C      4   3   1     2.895961159322   111.52248218   295.81742636
 C      4   3   1     2.895718807728   110.90236974    66.32792383
 C      2   1   3     2.732257991114    83.40262353    57.38244935
 C      2   1   3     2.729292740871    84.57268032   305.21991331
 C      2   1   3     2.745172481230   138.06760156   179.70614832
 C      9   2   1     2.906106930019   111.05423698   322.03907999
 C      3   1   2     2.742616338640   148.25131746   177.05883401
 C      3   1   2     2.464600021301    28.19036528   178.51828680
 C     10   9   2     2.851971947651   110.89182983    44.22130889
 C     12   3   1     2.824345310019   123.40722451   181.70761884
 C     11   3   1     2.620514441510   119.04711218    93.54696175
 C     11   3   1     2.618936508891   119.15118864   270.96653129
 C     14  12   3     2.903403624655   110.39928638   100.58860751
 C     13  10   9     2.630425310635   120.83512110   249.13272453
 C     13  10   9     2.633731583856   120.66140844    65.45814027
 C     15  11   3     2.623955718658   118.88725046   178.13409817
 C     16  11   3     2.625721770626   118.89196447   181.93177367
 C     21  16  11     2.625567700836   120.09008060     0.23229805
 C     18  13  10     2.629872040767   121.00891185   175.46480170
 C     19  13  10     2.623632614371   120.92351912   184.75075929
 C     23  18  13     2.625639154519   120.03828294   359.90295711
 H      4   3   1     2.061487168094   103.70857999   180.94321498
 H      5   4   3     2.063483288456   112.67066333    52.04360419
 H      5   4   3     2.066476521269   108.86489476   293.56225239
 H      6   4   3     2.066657532775   108.84656608    65.19410219
 H      6   4   3     2.065312519382   112.22382877   306.68307377
 H      7   2   1     2.087022732844   111.80181514   224.95471082
 H      7   2   1     2.059988021272   109.88867744   106.14481105
 H      8   2   1     2.061438514111   109.56989125   252.72715537
 H      8   2   1     2.087473854685   112.50820993   133.41817546
 H      9   2   1     2.064110207517   107.09301202    80.61156261
 H      9   2   1     2.080119166100   112.83131975   198.03669844
 H     10   9   2     2.065179942865   110.61172712   282.47137341
 H     10   9   2     2.066342502283   108.40785588   166.21679565
 H     14  12   3     2.055023349673   110.20658450   337.84262030
 H     14  12   3     2.063277406748   106.54211353   219.92401369
 H     15  11   3     2.049383426901   120.19927537   357.58110585
 H     16  11   3     2.048820151732   120.26686050     1.93036035
 H     17  14  12     2.059649015779   109.15767534   176.55972018
 H     17  14  12     2.061404151137   111.07426827    57.17197190
 H     17  14  12     2.062420218702   111.13085412   295.67347124
 H     18  13  10     2.052921429486   119.38360918   354.86694928
 H     19  13  10     2.052140719488   119.58522304     4.71754420
 H     20  15  11     2.047651741721   119.70281992   179.59581281
 H     21  16  11     2.047665658280   119.69902517   180.25010795
 H     22  21  16     2.047781586955   119.86413221   180.07280093
 H     23  18  13     2.050556798005   119.88884776   179.01482883
 H     24  19  13     2.049667133803   119.83338863   180.45968749
 H     25  23  18     2.048933844054   120.30071137   179.48890175
 H      1   2   3     1.835930373555    15.22182442   189.29555204

---------------------
BASIS SET INFORMATION
---------------------
There are 4 groups of distinct atoms

 Group   1 Type O   : 11s6p2d1f contracted to 5s3p2d1f pattern {62111/411/11/1}
 Group   2 Type N   : 11s6p2d1f contracted to 5s3p2d1f pattern {62111/411/11/1}
 Group   3 Type C   : 11s6p2d1f contracted to 5s3p2d1f pattern {62111/411/11/1}
 Group   4 Type H   : 5s1p contracted to 3s1p pattern {311/1}

Atom   0O    basis set group =>   1
Atom   1N    basis set group =>   2
Atom   2N    basis set group =>   2
Atom   3C    basis set group =>   3
Atom   4C    basis set group =>   3
Atom   5C    basis set group =>   3
Atom   6C    basis set group =>   3
Atom   7C    basis set group =>   3
Atom   8C    basis set group =>   3
Atom   9C    basis set group =>   3
Atom  10C    basis set group =>   3
Atom  11C    basis set group =>   3
Atom  12C    basis set group =>   3
Atom  13C    basis set group =>   3
Atom  14C    basis set group =>   3
Atom  15C    basis set group =>   3
Atom  16C    basis set group =>   3
Atom  17C    basis set group =>   3
Atom  18C    basis set group =>   3
Atom  19C    basis set group =>   3
Atom  20C    basis set group =>   3
Atom  21C    basis set group =>   3
Atom  22C    basis set group =>   3
Atom  23C    basis set group =>   3
Atom  24C    basis set group =>   3
Atom  25H    basis set group =>   4
Atom  26H    basis set group =>   4
Atom  27H    basis set group =>   4
Atom  28H    basis set group =>   4
Atom  29H    basis set group =>   4
Atom  30H    basis set group =>   4
Atom  31H    basis set group =>   4
Atom  32H    basis set group =>   4
Atom  33H    basis set group =>   4
Atom  34H    basis set group =>   4
Atom  35H    basis set group =>   4
Atom  36H    basis set group =>   4
Atom  37H    basis set group =>   4
Atom  38H    basis set group =>   4
Atom  39H    basis set group =>   4
Atom  40H    basis set group =>   4
Atom  41H    basis set group =>   4
Atom  42H    basis set group =>   4
Atom  43H    basis set group =>   4
Atom  44H    basis set group =>   4
Atom  45H    basis set group =>   4
Atom  46H    basis set group =>   4
Atom  47H    basis set group =>   4
Atom  48H    basis set group =>   4
Atom  49H    basis set group =>   4
Atom  50H    basis set group =>   4
Atom  51H    basis set group =>   4
Atom  52H    basis set group =>   4
Atom  53H    basis set group =>   4
---------------------------------
AUXILIARY/C BASIS SET INFORMATION
---------------------------------
There are 4 groups of distinct atoms

 Group   1 Type O   : 8s6p5d3f1g contracted to 8s6p4d3f1g pattern {11111111/111111/2111/111/1}
 Group   2 Type N   : 8s6p5d3f1g contracted to 8s6p4d3f1g pattern {11111111/111111/2111/111/1}
 Group   3 Type C   : 8s6p5d3f1g contracted to 8s6p4d3f1g pattern {11111111/111111/2111/111/1}
 Group   4 Type H   : 4s3p2d contracted to 4s2p1d pattern {1111/21/2}

Atom   0O    basis set group =>   1
Atom   1N    basis set group =>   2
Atom   2N    basis set group =>   2
Atom   3C    basis set group =>   3
Atom   4C    basis set group =>   3
Atom   5C    basis set group =>   3
Atom   6C    basis set group =>   3
Atom   7C    basis set group =>   3
Atom   8C    basis set group =>   3
Atom   9C    basis set group =>   3
Atom  10C    basis set group =>   3
Atom  11C    basis set group =>   3
Atom  12C    basis set group =>   3
Atom  13C    basis set group =>   3
Atom  14C    basis set group =>   3
Atom  15C    basis set group =>   3
Atom  16C    basis set group =>   3
Atom  17C    basis set group =>   3
Atom  18C    basis set group =>   3
Atom  19C    basis set group =>   3
Atom  20C    basis set group =>   3
Atom  21C    basis set group =>   3
Atom  22C    basis set group =>   3
Atom  23C    basis set group =>   3
Atom  24C    basis set group =>   3
Atom  25H    basis set group =>   4
Atom  26H    basis set group =>   4
Atom  27H    basis set group =>   4
Atom  28H    basis set group =>   4
Atom  29H    basis set group =>   4
Atom  30H    basis set group =>   4
Atom  31H    basis set group =>   4
Atom  32H    basis set group =>   4
Atom  33H    basis set group =>   4
Atom  34H    basis set group =>   4
Atom  35H    basis set group =>   4
Atom  36H    basis set group =>   4
Atom  37H    basis set group =>   4
Atom  38H    basis set group =>   4
Atom  39H    basis set group =>   4
Atom  40H    basis set group =>   4
Atom  41H    basis set group =>   4
Atom  42H    basis set group =>   4
Atom  43H    basis set group =>   4
Atom  44H    basis set group =>   4
Atom  45H    basis set group =>   4
Atom  46H    basis set group =>   4
Atom  47H    basis set group =>   4
Atom  48H    basis set group =>   4
Atom  49H    basis set group =>   4
Atom  50H    basis set group =>   4
Atom  51H    basis set group =>   4
Atom  52H    basis set group =>   4
Atom  53H    basis set group =>   4


           ************************************************************
           *        Program running with 8 parallel MPI-processes     *
           *              working on a common directory               *
           ************************************************************
------------------------------------------------------------------------------
                           ORCA GTO INTEGRAL CALCULATION
------------------------------------------------------------------------------
------------------------------------------------------------------------------
                   ___                                                        
                  /   \      - P O W E R E D   B Y -                         
                 /     \                                                     
                 |  |  |   _    _      __       _____    __    __             
                 |  |  |  | |  | |    /  \     |  _  \  |  |  /  |          
                  \  \/   | |  | |   /    \    | | | |  |  | /  /          
                 / \  \   | |__| |  /  /\  \   | |_| |  |  |/  /          
                |  |  |   |  __  | /  /__\  \  |    /   |      \           
                |  |  |   | |  | | |   __   |  |    \   |  |\   \          
                \     /   | |  | | |  |  |  |  | |\  \  |  | \   \       
                 \___/    |_|  |_| |__|  |__|  |_| \__\ |__|  \__/        
                                                                              
                      - O R C A' S   B I G   F R I E N D -                    
                                      &                                       
                       - I N T E G R A L  F E E D E R -                       
                                                                              
 v1 FN, 2020, v2 2021                                                         
------------------------------------------------------------------------------


Reading SHARK input file Fentanyl_OProt_39.SHARKINP.tmp ... ok
----------------------
SHARK INTEGRAL PACKAGE
----------------------

Number of atoms                             ...     54
Number of basis functions                   ...    949
Number of shells                            ...    391
Maximum angular momentum                    ...      3
Integral batch strategy                     ... SHARK/LIBINT Hybrid
RI-J (if used) integral strategy            ... SPLIT-RIJ (Revised 2003 algorithm where possible)
Printlevel                                  ...      1
Contraction scheme used                     ... SEGMENTED contraction
Coulomb Range Separation                    ... NOT USED
Exchange Range Separation                   ... NOT USED
Finite Nucleus Model                        ... NOT USED
Auxiliary Coulomb fitting basis             ... NOT available
Auxiliary J/K fitting basis                 ... NOT available
Auxiliary Correlation fitting basis         ... AVAILABLE
   # of basis functions in Aux-C            ...   2335
   # of shells in Aux-C                     ...    753
   Maximum angular momentum in Aux-C        ...      4
Auxiliary 'external' fitting basis          ... NOT available
Integral threshold                          ...     1.000000e-12
Primitive cut-off                           ...     1.000000e-14
Primitive pair pre-selection threshold      ...     1.000000e-14

Calculating pre-screening integrals         ... done (  0.1 sec) Dimension = 391
Organizing shell pair data                  ... done (  0.5 sec)
Shell pair information
Total number of shell pairs                 ...     76636
Shell pairs after pre-screening             ...     57382
Total number of primitive shell pairs       ...    228112
Primitive shell pairs kept                  ...    114561
          la=0 lb=0:  16565 shell pairs
          la=1 lb=0:  16993 shell pairs
          la=1 lb=1:   4407 shell pairs
          la=2 lb=0:   7793 shell pairs
          la=2 lb=1:   4009 shell pairs
          la=2 lb=2:    931 shell pairs
          la=3 lb=0:   3647 shell pairs
          la=3 lb=1:   1937 shell pairs
          la=3 lb=2:    878 shell pairs
          la=3 lb=3:    222 shell pairs

Calculating one electron integrals          ... done (  0.1 sec)
Calculating RI/C V-Matrix + Cholesky decomp.... done (  0.3 sec)
Calculating Nuclear repulsion               ... done (  0.0 sec) ENN=   2283.696532176264 Eh

SHARK setup successfully completed in   1.6 seconds

Maximum memory used throughout the entire GTOINT-calculation: 83.5 MB
[1704049198.639179] [gra1292:81644:0]          mpool.c:42   UCX  WARN  object 0xb472cc0 was not returned to mpool ucp_requests
[1704049198.639201] [gra1292:81644:0]          mpool.c:42   UCX  WARN  object 0xb472e80 was not returned to mpool ucp_requests
[1704049198.639212] [gra1292:81644:0]          mpool.c:42   UCX  WARN  object 0xb473040 was not returned to mpool ucp_requests
[1704049198.639218] [gra1292:81644:0]          mpool.c:42   UCX  WARN  object 0xb473200 was not returned to mpool ucp_requests
[1704049198.639222] [gra1292:81644:0]          mpool.c:42   UCX  WARN  object 0xb4733c0 was not returned to mpool ucp_requests
[1704049198.639227] [gra1292:81644:0]          mpool.c:42   UCX  WARN  object 0xb473580 was not returned to mpool ucp_requests
[1704049198.639231] [gra1292:81644:0]          mpool.c:42   UCX  WARN  object 0xb473740 was not returned to mpool ucp_requests
[1704049198.639235] [gra1292:81644:0]          mpool.c:42   UCX  WARN  object 0xb473ac0 was not returned to mpool ucp_requests
[1704049198.639241] [gra1292:81644:0]          mpool.c:42   UCX  WARN  object 0xb473c80 was not returned to mpool ucp_requests
[1704049198.639245] [gra1292:81644:0]          mpool.c:42   UCX  WARN  object 0xb473e40 was not returned to mpool ucp_requests
[1704049198.639249] [gra1292:81644:0]          mpool.c:42   UCX  WARN  object 0xb474000 was not returned to mpool ucp_requests
[1704049198.639255] [gra1292:81644:0]          mpool.c:42   UCX  WARN  object 0xb4741c0 was not returned to mpool ucp_requests
[1704049198.639342] [gra1292:81650:0]          mpool.c:42   UCX  WARN  object 0xc6ef400 was not returned to mpool ucp_requests
[1704049198.639363] [gra1292:81650:0]          mpool.c:42   UCX  WARN  object 0xc6ef5c0 was not returned to mpool ucp_requests
[1704049198.639373] [gra1292:81650:0]          mpool.c:42   UCX  WARN  object 0xc6ef780 was not returned to mpool ucp_requests
[1704049198.639379] [gra1292:81650:0]          mpool.c:42   UCX  WARN  object 0xc6ef940 was not returned to mpool ucp_requests
[1704049198.639384] [gra1292:81650:0]          mpool.c:42   UCX  WARN  object 0xc6efb00 was not returned to mpool ucp_requests
[1704049198.639388] [gra1292:81650:0]          mpool.c:42   UCX  WARN  object 0xc6efcc0 was not returned to mpool ucp_requests
[1704049198.639393] [gra1292:81650:0]          mpool.c:42   UCX  WARN  object 0xc6efe80 was not returned to mpool ucp_requests
[1704049198.639397] [gra1292:81650:0]          mpool.c:42   UCX  WARN  object 0xc6f0040 was not returned to mpool ucp_requests
[1704049198.639407] [gra1292:81650:0]          mpool.c:42   UCX  WARN  object 0xc6f0200 was not returned to mpool ucp_requests
[1704049198.639412] [gra1292:81650:0]          mpool.c:42   UCX  WARN  object 0xc6f03c0 was not returned to mpool ucp_requests
[1704049198.639417] [gra1292:81650:0]          mpool.c:42   UCX  WARN  object 0xc6f0580 was not returned to mpool ucp_requests
[1704049198.639421] [gra1292:81650:0]          mpool.c:42   UCX  WARN  object 0xc6f0740 was not returned to mpool ucp_requests
[1704049198.639425] [gra1292:81650:0]          mpool.c:42   UCX  WARN  object 0xc6f0900 was not returned to mpool ucp_requests
[1704049198.639430] [gra1292:81650:0]          mpool.c:42   UCX  WARN  object 0xc6f0ac0 was not returned to mpool ucp_requests
[1704049198.639434] [gra1292:81650:0]          mpool.c:42   UCX  WARN  object 0xc6f0c80 was not returned to mpool ucp_requests
[1704049198.639439] [gra1292:81650:0]          mpool.c:42   UCX  WARN  object 0xc6f0e40 was not returned to mpool ucp_requests
[1704049198.639443] [gra1292:81650:0]          mpool.c:42   UCX  WARN  object 0xc6f1000 was not returned to mpool ucp_requests
[1704049198.639448] [gra1292:81650:0]          mpool.c:42   UCX  WARN  object 0xc6f11c0 was not returned to mpool ucp_requests
[1704049198.639960] [gra1292:81649:0]          mpool.c:42   UCX  WARN  object 0xc482400 was not returned to mpool ucp_requests
[1704049198.639977] [gra1292:81649:0]          mpool.c:42   UCX  WARN  object 0xc4825c0 was not returned to mpool ucp_requests
[1704049198.639983] [gra1292:81649:0]          mpool.c:42   UCX  WARN  object 0xc482780 was not returned to mpool ucp_requests
[1704049198.639988] [gra1292:81649:0]          mpool.c:42   UCX  WARN  object 0xc482940 was not returned to mpool ucp_requests
[1704049198.639999] [gra1292:81649:0]          mpool.c:42   UCX  WARN  object 0xc482b00 was not returned to mpool ucp_requests
[1704049198.640004] [gra1292:81649:0]          mpool.c:42   UCX  WARN  object 0xc482cc0 was not returned to mpool ucp_requests
[1704049198.640009] [gra1292:81649:0]          mpool.c:42   UCX  WARN  object 0xc482e80 was not returned to mpool ucp_requests
[1704049198.640013] [gra1292:81649:0]          mpool.c:42   UCX  WARN  object 0xc483040 was not returned to mpool ucp_requests
[1704049198.640021] [gra1292:81649:0]          mpool.c:42   UCX  WARN  object 0xc483200 was not returned to mpool ucp_requests
[1704049198.640026] [gra1292:81649:0]          mpool.c:42   UCX  WARN  object 0xc4833c0 was not returned to mpool ucp_requests
[1704049198.640030] [gra1292:81649:0]          mpool.c:42   UCX  WARN  object 0xc483580 was not returned to mpool ucp_requests
[1704049198.640034] [gra1292:81649:0]          mpool.c:42   UCX  WARN  object 0xc483740 was not returned to mpool ucp_requests
[1704049198.640039] [gra1292:81649:0]          mpool.c:42   UCX  WARN  object 0xc483900 was not returned to mpool ucp_requests
[1704049198.640044] [gra1292:81649:0]          mpool.c:42   UCX  WARN  object 0xc483ac0 was not returned to mpool ucp_requests
[1704049198.640048] [gra1292:81649:0]          mpool.c:42   UCX  WARN  object 0xc483c80 was not returned to mpool ucp_requests
[1704049198.640053] [gra1292:81649:0]          mpool.c:42   UCX  WARN  object 0xc483e40 was not returned to mpool ucp_requests
[1704049198.640057] [gra1292:81649:0]          mpool.c:42   UCX  WARN  object 0xc484000 was not returned to mpool ucp_requests
[1704049198.640065] [gra1292:81649:0]          mpool.c:42   UCX  WARN  object 0xc4841c0 was not returned to mpool ucp_requests
[1704049198.640145] [gra1292:81647:0]          mpool.c:42   UCX  WARN  object 0xb6cf380 was not returned to mpool ucp_requests
[1704049198.640163] [gra1292:81647:0]          mpool.c:42   UCX  WARN  object 0xb6cf540 was not returned to mpool ucp_requests
[1704049198.640174] [gra1292:81647:0]          mpool.c:42   UCX  WARN  object 0xb6cf700 was not returned to mpool ucp_requests
[1704049198.640179] [gra1292:81647:0]          mpool.c:42   UCX  WARN  object 0xb6cf8c0 was not returned to mpool ucp_requests
[1704049198.640187] [gra1292:81647:0]          mpool.c:42   UCX  WARN  object 0xb6cfa80 was not returned to mpool ucp_requests
[1704049198.640192] [gra1292:81647:0]          mpool.c:42   UCX  WARN  object 0xb6cfc40 was not returned to mpool ucp_requests
[1704049198.640200] [gra1292:81647:0]          mpool.c:42   UCX  WARN  object 0xb6cfe00 was not returned to mpool ucp_requests
[1704049198.640206] [gra1292:81647:0]          mpool.c:42   UCX  WARN  object 0xb6cffc0 was not returned to mpool ucp_requests
[1704049198.640210] [gra1292:81647:0]          mpool.c:42   UCX  WARN  object 0xb6d0180 was not returned to mpool ucp_requests
[1704049198.640214] [gra1292:81647:0]          mpool.c:42   UCX  WARN  object 0xb6d0340 was not returned to mpool ucp_requests
[1704049198.640219] [gra1292:81647:0]          mpool.c:42   UCX  WARN  object 0xb6d0500 was not returned to mpool ucp_requests
[1704049198.640223] [gra1292:81647:0]          mpool.c:42   UCX  WARN  object 0xb6d06c0 was not returned to mpool ucp_requests
[1704049198.640231] [gra1292:81647:0]          mpool.c:42   UCX  WARN  object 0xb6d0880 was not returned to mpool ucp_requests
[1704049198.640236] [gra1292:81647:0]          mpool.c:42   UCX  WARN  object 0xb6d0a40 was not returned to mpool ucp_requests
[1704049198.640242] [gra1292:81647:0]          mpool.c:42   UCX  WARN  object 0xb6d0c00 was not returned to mpool ucp_requests
[1704049198.640246] [gra1292:81647:0]          mpool.c:42   UCX  WARN  object 0xb6d0dc0 was not returned to mpool ucp_requests
[1704049198.640251] [gra1292:81647:0]          mpool.c:42   UCX  WARN  object 0xb6d0f80 was not returned to mpool ucp_requests
[1704049198.640255] [gra1292:81647:0]          mpool.c:42   UCX  WARN  object 0xb6d1140 was not returned to mpool ucp_requests
[1704049198.640944] [gra1292:81648:0]          mpool.c:42   UCX  WARN  object 0xa82f400 was not returned to mpool ucp_requests
[1704049198.640959] [gra1292:81648:0]          mpool.c:42   UCX  WARN  object 0xa82f5c0 was not returned to mpool ucp_requests
[1704049198.640969] [gra1292:81648:0]          mpool.c:42   UCX  WARN  object 0xa82f780 was not returned to mpool ucp_requests
[1704049198.640975] [gra1292:81648:0]          mpool.c:42   UCX  WARN  object 0xa82f940 was not returned to mpool ucp_requests
[1704049198.640979] [gra1292:81648:0]          mpool.c:42   UCX  WARN  object 0xa82fb00 was not returned to mpool ucp_requests
[1704049198.640988] [gra1292:81648:0]          mpool.c:42   UCX  WARN  object 0xa82fcc0 was not returned to mpool ucp_requests
[1704049198.640995] [gra1292:81648:0]          mpool.c:42   UCX  WARN  object 0xa82fe80 was not returned to mpool ucp_requests
[1704049198.641003] [gra1292:81648:0]          mpool.c:42   UCX  WARN  object 0xa830040 was not returned to mpool ucp_requests
[1704049198.641011] [gra1292:81648:0]          mpool.c:42   UCX  WARN  object 0xa830200 was not returned to mpool ucp_requests
[1704049198.641016] [gra1292:81648:0]          mpool.c:42   UCX  WARN  object 0xa8303c0 was not returned to mpool ucp_requests
[1704049198.641020] [gra1292:81648:0]          mpool.c:42   UCX  WARN  object 0xa830580 was not returned to mpool ucp_requests
[1704049198.641024] [gra1292:81648:0]          mpool.c:42   UCX  WARN  object 0xa830740 was not returned to mpool ucp_requests
[1704049198.641028] [gra1292:81648:0]          mpool.c:42   UCX  WARN  object 0xa830900 was not returned to mpool ucp_requests
[1704049198.641033] [gra1292:81648:0]          mpool.c:42   UCX  WARN  object 0xa830ac0 was not returned to mpool ucp_requests
[1704049198.641037] [gra1292:81648:0]          mpool.c:42   UCX  WARN  object 0xa830c80 was not returned to mpool ucp_requests
[1704049198.641042] [gra1292:81648:0]          mpool.c:42   UCX  WARN  object 0xa830e40 was not returned to mpool ucp_requests
[1704049198.641047] [gra1292:81648:0]          mpool.c:42   UCX  WARN  object 0xa831000 was not returned to mpool ucp_requests
[1704049198.641052] [gra1292:81648:0]          mpool.c:42   UCX  WARN  object 0xa8311c0 was not returned to mpool ucp_requests
[1704049198.641989] [gra1292:81646:0]          mpool.c:42   UCX  WARN  object 0xac6a140 was not returned to mpool ucp_requests
[1704049198.642042] [gra1292:81646:0]          mpool.c:42   UCX  WARN  object 0xac6a300 was not returned to mpool ucp_requests
[1704049198.642052] [gra1292:81646:0]          mpool.c:42   UCX  WARN  object 0xac6a4c0 was not returned to mpool ucp_requests
[1704049198.642057] [gra1292:81646:0]          mpool.c:42   UCX  WARN  object 0xac6a680 was not returned to mpool ucp_requests
[1704049198.642062] [gra1292:81646:0]          mpool.c:42   UCX  WARN  object 0xac6a840 was not returned to mpool ucp_requests
[1704049198.642067] [gra1292:81646:0]          mpool.c:42   UCX  WARN  object 0xac6aa00 was not returned to mpool ucp_requests
[1704049198.642072] [gra1292:81646:0]          mpool.c:42   UCX  WARN  object 0xac6abc0 was not returned to mpool ucp_requests
[1704049198.642080] [gra1292:81646:0]          mpool.c:42   UCX  WARN  object 0xac6ad80 was not returned to mpool ucp_requests
[1704049198.642085] [gra1292:81646:0]          mpool.c:42   UCX  WARN  object 0xac6af40 was not returned to mpool ucp_requests
[1704049198.642089] [gra1292:81646:0]          mpool.c:42   UCX  WARN  object 0xac6b100 was not returned to mpool ucp_requests
[1704049198.642094] [gra1292:81646:0]          mpool.c:42   UCX  WARN  object 0xac6b2c0 was not returned to mpool ucp_requests
[1704049198.642098] [gra1292:81646:0]          mpool.c:42   UCX  WARN  object 0xac6b480 was not returned to mpool ucp_requests
[1704049198.642102] [gra1292:81646:0]          mpool.c:42   UCX  WARN  object 0xac6b640 was not returned to mpool ucp_requests
[1704049198.642107] [gra1292:81646:0]          mpool.c:42   UCX  WARN  object 0xac6b800 was not returned to mpool ucp_requests
[1704049198.642112] [gra1292:81646:0]          mpool.c:42   UCX  WARN  object 0xac6b9c0 was not returned to mpool ucp_requests
[1704049198.642116] [gra1292:81646:0]          mpool.c:42   UCX  WARN  object 0xac6bb80 was not returned to mpool ucp_requests
[1704049198.642124] [gra1292:81646:0]          mpool.c:42   UCX  WARN  object 0xac6bd40 was not returned to mpool ucp_requests
[1704049198.642128] [gra1292:81646:0]          mpool.c:42   UCX  WARN  object 0xac6bf00 was not returned to mpool ucp_requests
[1704049198.642821] [gra1292:81645:0]          mpool.c:42   UCX  WARN  object 0xa65f140 was not returned to mpool ucp_requests
[1704049198.642879] [gra1292:81645:0]          mpool.c:42   UCX  WARN  object 0xa65f300 was not returned to mpool ucp_requests
[1704049198.642918] [gra1292:81645:0]          mpool.c:42   UCX  WARN  object 0xa65f4c0 was not returned to mpool ucp_requests
[1704049198.642955] [gra1292:81645:0]          mpool.c:42   UCX  WARN  object 0xa65f680 was not returned to mpool ucp_requests
[1704049198.642991] [gra1292:81645:0]          mpool.c:42   UCX  WARN  object 0xa65f840 was not returned to mpool ucp_requests
[1704049198.643027] [gra1292:81645:0]          mpool.c:42   UCX  WARN  object 0xa65fa00 was not returned to mpool ucp_requests
[1704049198.643063] [gra1292:81645:0]          mpool.c:42   UCX  WARN  object 0xa65fbc0 was not returned to mpool ucp_requests
[1704049198.643099] [gra1292:81645:0]          mpool.c:42   UCX  WARN  object 0xa65fd80 was not returned to mpool ucp_requests
[1704049198.643134] [gra1292:81645:0]          mpool.c:42   UCX  WARN  object 0xa65ff40 was not returned to mpool ucp_requests
[1704049198.643170] [gra1292:81645:0]          mpool.c:42   UCX  WARN  object 0xa660100 was not returned to mpool ucp_requests
[1704049198.643206] [gra1292:81645:0]          mpool.c:42   UCX  WARN  object 0xa6602c0 was not returned to mpool ucp_requests
[1704049198.643241] [gra1292:81645:0]          mpool.c:42   UCX  WARN  object 0xa660480 was not returned to mpool ucp_requests
[1704049198.643278] [gra1292:81645:0]          mpool.c:42   UCX  WARN  object 0xa660640 was not returned to mpool ucp_requests
[1704049198.643313] [gra1292:81645:0]          mpool.c:42   UCX  WARN  object 0xa660800 was not returned to mpool ucp_requests
[1704049198.643349] [gra1292:81645:0]          mpool.c:42   UCX  WARN  object 0xa6609c0 was not returned to mpool ucp_requests
[1704049198.643385] [gra1292:81645:0]          mpool.c:42   UCX  WARN  object 0xa660b80 was not returned to mpool ucp_requests
[1704049198.643421] [gra1292:81645:0]          mpool.c:42   UCX  WARN  object 0xa660d40 was not returned to mpool ucp_requests
[1704049198.643457] [gra1292:81645:0]          mpool.c:42   UCX  WARN  object 0xa660f00 was not returned to mpool ucp_requests


           ************************************************************
           *        Program running with 8 parallel MPI-processes     *
           *              working on a common directory               *
           ************************************************************
-------------------------------------------------------------------------------
                                 ORCA SCF
-------------------------------------------------------------------------------

------------
SCF SETTINGS
------------
Hamiltonian:
 Ab initio Hamiltonian  Method          .... Hartree-Fock(GTOs)


General Settings:
 Integral files         IntName         .... Fentanyl_OProt_39
 Hartree-Fock type      HFTyp           .... RHF
 Total Charge           Charge          ....    1
 Multiplicity           Mult            ....    1
 Number of Electrons    NEL             ....  182
 Basis Dimension        Dim             ....  949
 Nuclear Repulsion      ENuc            ....   2283.6965321763 Eh

Convergence Acceleration:
 DIIS                   CNVDIIS         .... on
   Start iteration      DIISMaxIt       ....    12
   Startup error        DIISStart       ....  0.200000
   # of expansion vecs  DIISMaxEq       ....     5
   Bias factor          DIISBfac        ....   1.050
   Max. coefficient     DIISMaxC        ....  10.000
 Trust-Rad. Augm. Hess. CNVTRAH         .... auto
   Auto Start mean grad. ratio tolernc. ....  1.125000
   Auto Start start iteration           ....    20
   Auto Start num. interpolation iter.  ....    10
   Max. Number of Micro iterations      ....    16
   Max. Number of Macro iterations      .... Maxiter - #DIIS iter
   Number of Davidson start vectors     ....     2
   Converg. threshold I  (grad. norm)   ....   2.000e-06
   Converg. threshold II (energy diff.) ....   1.000e-09
   Grad. Scal. Fac. for Micro threshold ....   0.100
   Minimum threshold for Micro iter.    ....   0.010
   NR start threshold (gradient norm)   ....   0.001
   Initial trust radius                 ....   0.400
   Minimum AH scaling param. (alpha)    ....   1.000
   Maximum AH scaling param. (alpha)    .... 1000.000
   Orbital update algorithm             .... Taylor
   White noise on init. David. guess    .... on
   Maximum white noise                  ....   0.010
   Quad. conv. algorithm                .... NR
 SOSCF                  CNVSOSCF        .... on
   Start iteration      SOSCFMaxIt      ....   150
   Startup grad/error   SOSCFStart      ....  0.003300
 Level Shifting         CNVShift        .... on
   Level shift para.    LevelShift      ....    0.2500
   Turn off err/grad.   ShiftErr        ....    0.0010
 Zerner damping         CNVZerner       .... off
 Static damping         CNVDamp         .... on
   Fraction old density DampFac         ....    0.7000
   Max. Damping (<1)    DampMax         ....    0.9800
   Min. Damping (>=0)   DampMin         ....    0.0000
   Turn off err/grad.   DampErr         ....    0.1000
 Fernandez-Rico         CNVRico         .... off

SCF Procedure:
 Maximum # iterations   MaxIter         ....   125
 SCF integral mode      SCFMode         .... Direct
   Integral package                     .... SHARK and LIBINT hybrid scheme
 Reset frequency        DirectResetFreq ....    20
 Integral Threshold     Thresh          ....  1.000e-12 Eh
 Primitive CutOff       TCut            ....  1.000e-14 Eh

Convergence Tolerance:
 Convergence Check Mode ConvCheckMode   .... Total+1el-Energy
 Convergence forced     ConvForced      .... 1
 Energy Change          TolE            ....  1.000e-09 Eh
 1-El. energy change                    ....  1.000e-06 Eh
 Orbital Gradient       TolG            ....  2.000e-06
 Orbital Rotation angle TolX            ....  2.000e-06
 DIIS Error             TolErr          ....  1.000e-08


Diagonalization of the overlap matrix:
Smallest eigenvalue                        ... 6.431e-06
Time for diagonalization                   ...    0.192 sec
Threshold for overlap eigenvalues          ... 1.000e-08
Number of eigenvalues below threshold      ... 0
Time for construction of square roots      ...    0.098 sec
Total time needed                          ...    0.295 sec

Time for model grid setup =    0.399 sec

------------------------------
INITIAL GUESS: MODEL POTENTIAL
------------------------------
Loading Hartree-Fock densities                     ... done
Calculating cut-offs                               ... done
Initializing the effective Hamiltonian             ... done
Setting up the integral package (SHARK)            ... done
Starting the Coulomb interaction                   ... done (   1.0 sec)
Reading the grid                                   ... done
Mapping shells                                     ... done
Starting the XC term evaluation                    ... done (   0.3 sec)
Transforming the Hamiltonian                       ... done (   0.1 sec)
Diagonalizing the Hamiltonian                      ... done (   0.2 sec)
Back transforming the eigenvectors                 ... done (   0.0 sec)
Now organizing SCF variables                       ... done
                      ------------------
                      INITIAL GUESS DONE (   2.1 sec)
                      ------------------
--------------
SCF ITERATIONS
--------------
ITER       Energy         Delta-E        Max-DP      RMS-DP      [F,P]     Damp
               ***  Starting incremental Fock matrix formation  ***
  0  -1032.8694251520   0.000000000000 0.03496146  0.00053772  0.2949118 0.7000
  1  -1033.2240892537  -0.354664101678 0.02641045  0.00043540  0.2189952 0.7000
                               ***Turning on DIIS***
  2  -1033.4436428981  -0.219553644425 0.01853513  0.00029985  0.1614939 0.7000
  3  -1036.1849479848  -2.741305086717 0.01440078  0.00021797  0.1180142 0.7000
  4  -1035.8180718803   0.366876104534 0.03801863  0.00056809  0.0834504 0.0000
  5  -1033.9996570128   1.818414867485 0.00704667  0.00007543  0.0045796 0.0000
                      *** Initiating the SOSCF procedure ***
                           *** Shutting down DIIS ***
                      *** Re-Reading the Fockian *** 
                      *** Removing any level shift *** 
ITER      Energy       Delta-E        Grad      Rot      Max-DP    RMS-DP
  6  -1033.92355163   0.0761053842  0.001148  0.001148  0.003493  0.000038
               *** Restarting incremental Fock matrix formation ***
  7  -1033.91111511   0.0124365201  0.000658  0.001424  0.001644  0.000019
  8  -1033.91114221  -0.0000271027  0.000240  0.000629  0.001596  0.000015
  9  -1033.91114978  -0.0000075657  0.000142  0.000221  0.000323  0.000004
 10  -1033.91115041  -0.0000006376  0.000053  0.000168  0.000169  0.000002
 11  -1033.91115058  -0.0000001677  0.000027  0.000141  0.000043  0.000001
 12  -1033.91115063  -0.0000000442  0.000010  0.000033  0.000031  0.000000
 13  -1033.91115063  -0.0000000065  0.000003  0.000009  0.000009  0.000000
 14  -1033.91115063  -0.0000000008  0.000002  0.000003  0.000004  0.000000
                 **** Energy Check signals convergence ****
              ***Rediagonalizing the Fockian in SOSCF/NRSCF***

               *****************************************************
               *                     SUCCESS                       *
               *           SCF CONVERGED AFTER  15 CYCLES          *
               *****************************************************


----------------
TOTAL SCF ENERGY
----------------

Total Energy       :        -1033.91115063 Eh          -28134.15272 eV

Components:
Nuclear Repulsion  :         2283.69653218 Eh           62142.54191 eV
Electronic Energy  :        -3317.60768281 Eh          -90276.69463 eV
One Electron Energy:        -5922.35808216 Eh         -161155.55641 eV
Two Electron Energy:         2604.75039935 Eh           70878.86178 eV

Virial components:
Potential Energy   :        -2066.93959818 Eh          -56244.28587 eV
Kinetic Energy     :         1033.02844755 Eh           28110.13315 eV
Virial Ratio       :            2.00085448


---------------
SCF CONVERGENCE
---------------

  Last Energy change         ...   -9.5042e-11  Tolerance :   1.0000e-09
  Last MAX-Density change    ...    2.0993e-06  Tolerance :   1.0000e-08
  Last RMS-Density change    ...    2.4571e-08  Tolerance :   1.0000e-09
  Last Orbital Gradient      ...    2.9175e-07  Tolerance :   2.0000e-06
  Last Orbital Rotation      ...    5.5120e-07  Tolerance :   2.0000e-06

             **** THE GBW FILE WAS UPDATED (Fentanyl_OProt_39.gbw) ****
             **** DENSITY Fentanyl_OProt_39.scfp WAS UPDATED ****
             **** ENERGY FILE WAS UPDATED (Fentanyl_OProt_39.en.tmp) ****
             **** THE GBW FILE WAS UPDATED (Fentanyl_OProt_39.gbw) ****
             **** DENSITY Fentanyl_OProt_39.scfp WAS UPDATED ****
----------------
ORBITAL ENERGIES
----------------

  NO   OCC          E(Eh)            E(eV) 
   0   2.0000     -20.775558      -565.3317 
   1   2.0000     -15.782537      -429.4647 
   2   2.0000     -15.648183      -425.8087 
   3   2.0000     -11.547926      -314.2351 
   4   2.0000     -11.418681      -310.7181 
   5   2.0000     -11.413793      -310.5851 
   6   2.0000     -11.382274      -309.7274 
   7   2.0000     -11.368018      -309.3395 
   8   2.0000     -11.367429      -309.3235 
   9   2.0000     -11.362840      -309.1986 
  10   2.0000     -11.362716      -309.1952 
  11   2.0000     -11.360090      -309.1238 
  12   2.0000     -11.359879      -309.1180 
  13   2.0000     -11.356009      -309.0127 
  14   2.0000     -11.354783      -308.9794 
  15   2.0000     -11.354770      -308.9790 
  16   2.0000     -11.351703      -308.8956 
  17   2.0000     -11.348431      -308.8065 
  18   2.0000     -11.327453      -308.2357 
  19   2.0000     -11.323119      -308.1177 
  20   2.0000     -11.321443      -308.0721 
  21   2.0000     -11.318290      -307.9863 
  22   2.0000     -11.317720      -307.9708 
  23   2.0000     -11.316894      -307.9483 
  24   2.0000     -11.316039      -307.9251 
  25   2.0000      -1.621917       -44.1346 
  26   2.0000      -1.453930       -39.5634 
  27   2.0000      -1.353994       -36.8441 
  28   2.0000      -1.284327       -34.9483 
  29   2.0000      -1.247441       -33.9446 
  30   2.0000      -1.233178       -33.5565 
  31   2.0000      -1.192746       -32.4563 
  32   2.0000      -1.153543       -31.3895 
  33   2.0000      -1.151330       -31.3293 
  34   2.0000      -1.149295       -31.2739 
  35   2.0000      -1.144927       -31.1551 
  36   2.0000      -1.103784       -30.0355 
  37   2.0000      -1.083961       -29.4961 
  38   2.0000      -1.053495       -28.6670 
  39   2.0000      -1.012688       -27.5566 
  40   2.0000      -0.994367       -27.0581 
  41   2.0000      -0.988847       -26.9079 
  42   2.0000      -0.967015       -26.3138 
  43   2.0000      -0.965188       -26.2641 
  44   2.0000      -0.944305       -25.6958 
  45   2.0000      -0.916440       -24.9376 
  46   2.0000      -0.904098       -24.6017 
  47   2.0000      -0.879505       -23.9326 
  48   2.0000      -0.865924       -23.5630 
  49   2.0000      -0.847942       -23.0737 
  50   2.0000      -0.815063       -22.1790 
  51   2.0000      -0.807615       -21.9763 
  52   2.0000      -0.788972       -21.4690 
  53   2.0000      -0.777123       -21.1466 
  54   2.0000      -0.771773       -21.0010 
  55   2.0000      -0.766549       -20.8589 
  56   2.0000      -0.754841       -20.5403 
  57   2.0000      -0.747728       -20.3467 
  58   2.0000      -0.746637       -20.3170 
  59   2.0000      -0.739749       -20.1296 
  60   2.0000      -0.735923       -20.0255 
  61   2.0000      -0.729092       -19.8396 
  62   2.0000      -0.721494       -19.6328 
  63   2.0000      -0.718872       -19.5615 
  64   2.0000      -0.714606       -19.4454 
  65   2.0000      -0.692384       -18.8407 
  66   2.0000      -0.684820       -18.6349 
  67   2.0000      -0.674339       -18.3497 
  68   2.0000      -0.670805       -18.2535 
  69   2.0000      -0.662150       -18.0180 
  70   2.0000      -0.656645       -17.8682 
  71   2.0000      -0.651624       -17.7316 
  72   2.0000      -0.642543       -17.4845 
  73   2.0000      -0.641198       -17.4479 
  74   2.0000      -0.638613       -17.3775 
  75   2.0000      -0.633874       -17.2486 
  76   2.0000      -0.628843       -17.1117 
  77   2.0000      -0.622773       -16.9465 
  78   2.0000      -0.618300       -16.8248 
  79   2.0000      -0.608128       -16.5480 
  80   2.0000      -0.588891       -16.0246 
  81   2.0000      -0.587021       -15.9736 
  82   2.0000      -0.575847       -15.6696 
  83   2.0000      -0.570097       -15.5131 
  84   2.0000      -0.568928       -15.4813 
  85   2.0000      -0.561500       -15.2792 
  86   2.0000      -0.470629       -12.8065 
  87   2.0000      -0.468902       -12.7595 
  88   2.0000      -0.458549       -12.4778 
  89   2.0000      -0.428764       -11.6673 
  90   2.0000      -0.415676       -11.3111 
  91   0.0000      -0.023077        -0.6280 
  92   0.0000      -0.008481        -0.2308 
  93   0.0000       0.001675         0.0456 
  94   0.0000       0.015024         0.4088 
  95   0.0000       0.028863         0.7854 
  96   0.0000       0.034317         0.9338 
  97   0.0000       0.034577         0.9409 
  98   0.0000       0.035985         0.9792 
  99   0.0000       0.045547         1.2394 
 100   0.0000       0.048314         1.3147 
 101   0.0000       0.062669         1.7053 
 102   0.0000       0.066852         1.8191 
 103   0.0000       0.072012         1.9595 
 104   0.0000       0.075713         2.0603 
 105   0.0000       0.081035         2.2051 
 106   0.0000       0.084023         2.2864 
 107   0.0000       0.090394         2.4598 
 108   0.0000       0.094848         2.5809 
 109   0.0000       0.098965         2.6930 
 110   0.0000       0.100067         2.7230 
 111   0.0000       0.103239         2.8093 
 112   0.0000       0.108536         2.9534 
 113   0.0000       0.114204         3.1076 
 114   0.0000       0.117602         3.2001 
 115   0.0000       0.125973         3.4279 
 116   0.0000       0.126663         3.4467 
 117   0.0000       0.130680         3.5560 
 118   0.0000       0.132546         3.6068 
 119   0.0000       0.139597         3.7986 
 120   0.0000       0.150313         4.0902 
 121   0.0000       0.151789         4.1304 
 122   0.0000       0.156507         4.2588 
 123   0.0000       0.161973         4.4075 
 124   0.0000       0.168364         4.5814 
 125   0.0000       0.172073         4.6823 
 126   0.0000       0.180253         4.9049 
 127   0.0000       0.183724         4.9994 
 128   0.0000       0.186999         5.0885 
 129   0.0000       0.190354         5.1798 
 130   0.0000       0.194252         5.2859 
 131   0.0000       0.196430         5.3451 
 132   0.0000       0.203747         5.5442 
 133   0.0000       0.204800         5.5729 
 134   0.0000       0.209380         5.6975 
 135   0.0000       0.212590         5.7849 
 136   0.0000       0.222842         6.0638 
 137   0.0000       0.225767         6.1434 
 138   0.0000       0.227498         6.1905 
 139   0.0000       0.228444         6.2163 
 140   0.0000       0.234456         6.3799 
 141   0.0000       0.237567         6.4645 
 142   0.0000       0.240578         6.5465 
 143   0.0000       0.246552         6.7090 
 144   0.0000       0.246750         6.7144 
 145   0.0000       0.254033         6.9126 
 146   0.0000       0.256163         6.9705 
 147   0.0000       0.259800         7.0695 
 148   0.0000       0.268651         7.3104 
 149   0.0000       0.272966         7.4278 
 150   0.0000       0.275452         7.4954 
 151   0.0000       0.279786         7.6134 
 152   0.0000       0.285767         7.7761 
 153   0.0000       0.291215         7.9244 
 154   0.0000       0.293857         7.9962 
 155   0.0000       0.301828         8.2132 
 156   0.0000       0.307967         8.3802 
 157   0.0000       0.310041         8.4366 
 158   0.0000       0.312331         8.4990 
 159   0.0000       0.315555         8.5867 
 160   0.0000       0.320702         8.7267 
 161   0.0000       0.328198         8.9307 
 162   0.0000       0.333505         9.0751 
 163   0.0000       0.342814         9.3285 
 164   0.0000       0.347517         9.4564 
 165   0.0000       0.351382         9.5616 
 166   0.0000       0.359646         9.7865 
 167   0.0000       0.361834         9.8460 
 168   0.0000       0.369068        10.0428 
 169   0.0000       0.375760        10.2250 
 170   0.0000       0.377824        10.2811 
 171   0.0000       0.382335        10.4039 
 172   0.0000       0.388627        10.5751 
 173   0.0000       0.389956        10.6112 
 174   0.0000       0.393725        10.7138 
 175   0.0000       0.396355        10.7854 
 176   0.0000       0.403360        10.9760 
 177   0.0000       0.406710        11.0671 
 178   0.0000       0.407405        11.0860 
 179   0.0000       0.412622        11.2280 
 180   0.0000       0.418625        11.3914 
 181   0.0000       0.419138        11.4053 
 182   0.0000       0.424466        11.5503 
 183   0.0000       0.428373        11.6566 
 184   0.0000       0.430813        11.7230 
 185   0.0000       0.434044        11.8109 
 186   0.0000       0.437198        11.8968 
 187   0.0000       0.440376        11.9833 
 188   0.0000       0.443022        12.0552 
 189   0.0000       0.445461        12.1216 
 190   0.0000       0.449842        12.2408 
 191   0.0000       0.455821        12.4035 
 192   0.0000       0.456978        12.4350 
 193   0.0000       0.459307        12.4984 
 194   0.0000       0.466403        12.6915 
 195   0.0000       0.467888        12.7319 
 196   0.0000       0.469859        12.7855 
 197   0.0000       0.475996        12.9525 
 198   0.0000       0.478082        13.0093 
 199   0.0000       0.478883        13.0311 
 200   0.0000       0.482973        13.1424 
 201   0.0000       0.487858        13.2753 
 202   0.0000       0.489307        13.3147 
 203   0.0000       0.492266        13.3952 
 204   0.0000       0.496660        13.5148 
 205   0.0000       0.499670        13.5967 
 206   0.0000       0.501000        13.6329 
 207   0.0000       0.503287        13.6951 
 208   0.0000       0.508271        13.8308 
 209   0.0000       0.511787        13.9264 
 210   0.0000       0.518325        14.1043 
 211   0.0000       0.526501        14.3268 
 212   0.0000       0.528176        14.3724 
 213   0.0000       0.532111        14.4795 
 214   0.0000       0.532843        14.4994 
 215   0.0000       0.537489        14.6258 
 216   0.0000       0.540292        14.7021 
 217   0.0000       0.541013        14.7217 
 218   0.0000       0.543423        14.7873 
 219   0.0000       0.546176        14.8622 
 220   0.0000       0.547316        14.8932 
 221   0.0000       0.554013        15.0755 
 222   0.0000       0.556397        15.1403 
 223   0.0000       0.560793        15.2600 
 224   0.0000       0.568365        15.4660 
 225   0.0000       0.572206        15.5705 
 226   0.0000       0.576730        15.6936 
 227   0.0000       0.577370        15.7110 
 228   0.0000       0.583722        15.8839 
 229   0.0000       0.587895        15.9974 
 230   0.0000       0.591393        16.0926 
 231   0.0000       0.600871        16.3505 
 232   0.0000       0.602159        16.3856 
 233   0.0000       0.607103        16.5201 
 234   0.0000       0.610248        16.6057 
 235   0.0000       0.615832        16.7576 
 236   0.0000       0.623134        16.9563 
 237   0.0000       0.628280        17.0964 
 238   0.0000       0.635027        17.2800 
 239   0.0000       0.639135        17.3918 
 240   0.0000       0.642618        17.4865 
 241   0.0000       0.644579        17.5399 
 242   0.0000       0.646632        17.5958 
 243   0.0000       0.652889        17.7660 
 244   0.0000       0.658833        17.9278 
 245   0.0000       0.662273        18.0214 
 246   0.0000       0.678475        18.4623 
 247   0.0000       0.684876        18.6364 
 248   0.0000       0.688898        18.7459 
 249   0.0000       0.691059        18.8047 
 250   0.0000       0.698946        19.0193 
 251   0.0000       0.712982        19.4012 
 252   0.0000       0.722706        19.6658 
 253   0.0000       0.726363        19.7653 
 254   0.0000       0.737345        20.0642 
 255   0.0000       0.744971        20.2717 
 256   0.0000       0.747863        20.3504 
 257   0.0000       0.758475        20.6391 
 258   0.0000       0.770255        20.9597 
 259   0.0000       0.772267        21.0144 
 260   0.0000       0.777309        21.1517 
 261   0.0000       0.779607        21.2142 
 262   0.0000       0.783115        21.3096 
 263   0.0000       0.789418        21.4811 
 264   0.0000       0.795866        21.6566 
 265   0.0000       0.803982        21.8775 
 266   0.0000       0.809171        22.0186 
 267   0.0000       0.816190        22.2097 
 268   0.0000       0.821510        22.3544 
 269   0.0000       0.822649        22.3854 
 270   0.0000       0.824885        22.4463 
 271   0.0000       0.833885        22.6912 
 272   0.0000       0.837363        22.7858 
 273   0.0000       0.845937        23.0191 
 274   0.0000       0.850268        23.1370 
 275   0.0000       0.857998        23.3473 
 276   0.0000       0.862743        23.4764 
 277   0.0000       0.865036        23.5388 
 278   0.0000       0.875766        23.8308 
 279   0.0000       0.884633        24.0721 
 280   0.0000       0.889821        24.2133 
 281   0.0000       0.894679        24.3454 
 282   0.0000       0.896183        24.3864 
 283   0.0000       0.904162        24.6035 
 284   0.0000       0.908263        24.7151 
 285   0.0000       0.915001        24.8984 
 286   0.0000       0.918547        24.9949 
 287   0.0000       0.924705        25.1625 
 288   0.0000       0.937566        25.5125 
 289   0.0000       0.939382        25.5619 
 290   0.0000       0.945285        25.7225 
 291   0.0000       0.948367        25.8064 
 292   0.0000       0.953337        25.9416 
 293   0.0000       0.962757        26.1979 
 294   0.0000       0.963199        26.2100 
 295   0.0000       0.973536        26.4913 
 296   0.0000       0.977682        26.6041 
 297   0.0000       0.984990        26.8030 
 298   0.0000       0.990299        26.9474 
 299   0.0000       1.001231        27.2449 
 300   0.0000       1.007916        27.4268 
 301   0.0000       1.011690        27.5295 
 302   0.0000       1.019170        27.7330 
 303   0.0000       1.021654        27.8006 
 304   0.0000       1.029446        28.0126 
 305   0.0000       1.035074        28.1658 
 306   0.0000       1.043025        28.3822 
 307   0.0000       1.048047        28.5188 
 308   0.0000       1.056324        28.7440 
 309   0.0000       1.060771        28.8650 
 310   0.0000       1.062493        28.9119 
 311   0.0000       1.075443        29.2643 
 312   0.0000       1.081380        29.4258 
 313   0.0000       1.086965        29.5778 
 314   0.0000       1.095722        29.8161 
 315   0.0000       1.097136        29.8546 
 316   0.0000       1.112023        30.2597 
 317   0.0000       1.120735        30.4968 
 318   0.0000       1.122890        30.5554 
 319   0.0000       1.128624        30.7114 
 320   0.0000       1.132980        30.8300 
 321   0.0000       1.145325        31.1659 
 322   0.0000       1.162789        31.6411 
 323   0.0000       1.165623        31.7182 
 324   0.0000       1.175570        31.9889 
 325   0.0000       1.181675        32.1550 
 326   0.0000       1.183419        32.2025 
 327   0.0000       1.190052        32.3830 
 328   0.0000       1.199888        32.6506 
 329   0.0000       1.204963        32.7887 
 330   0.0000       1.210379        32.9361 
 331   0.0000       1.212861        33.0036 
 332   0.0000       1.227430        33.4001 
 333   0.0000       1.230838        33.4928 
 334   0.0000       1.235927        33.6313 
 335   0.0000       1.246089        33.9078 
 336   0.0000       1.248670        33.9780 
 337   0.0000       1.253239        34.1024 
 338   0.0000       1.263470        34.3808 
 339   0.0000       1.268040        34.5051 
 340   0.0000       1.279703        34.8225 
 341   0.0000       1.284697        34.9584 
 342   0.0000       1.287475        35.0340 
 343   0.0000       1.293825        35.2068 
 344   0.0000       1.299659        35.3655 
 345   0.0000       1.308088        35.5949 
 346   0.0000       1.317281        35.8450 
 347   0.0000       1.327443        36.1216 
 348   0.0000       1.331835        36.2411 
 349   0.0000       1.340551        36.4782 
 350   0.0000       1.345186        36.6044 
 351   0.0000       1.346083        36.6288 
 352   0.0000       1.352522        36.8040 
 353   0.0000       1.360145        37.0114 
 354   0.0000       1.372733        37.3540 
 355   0.0000       1.373683        37.3798 
 356   0.0000       1.379864        37.5480 
 357   0.0000       1.386328        37.7239 
 358   0.0000       1.389639        37.8140 
 359   0.0000       1.392270        37.8856 
 360   0.0000       1.395961        37.9860 
 361   0.0000       1.407814        38.3086 
 362   0.0000       1.409650        38.3585 
 363   0.0000       1.414219        38.4829 
 364   0.0000       1.423585        38.7377 
 365   0.0000       1.437283        39.1105 
 366   0.0000       1.439269        39.1645 
 367   0.0000       1.445228        39.3266 
 368   0.0000       1.452184        39.5159 
 369   0.0000       1.457384        39.6574 
 370   0.0000       1.464985        39.8643 
 371   0.0000       1.473760        40.1030 
 372   0.0000       1.485363        40.4188 
 373   0.0000       1.489104        40.5206 
 374   0.0000       1.495587        40.6970 
 375   0.0000       1.506578        40.9961 
 376   0.0000       1.515583        41.2411 
 377   0.0000       1.531363        41.6705 
 378   0.0000       1.539775        41.8994 
 379   0.0000       1.554575        42.3021 
 380   0.0000       1.557816        42.3903 
 381   0.0000       1.563710        42.5507 
 382   0.0000       1.572723        42.7960 
 383   0.0000       1.580463        43.0066 
 384   0.0000       1.589698        43.2579 
 385   0.0000       1.598689        43.5025 
 386   0.0000       1.604928        43.6723 
 387   0.0000       1.608655        43.7737 
 388   0.0000       1.628488        44.3134 
 389   0.0000       1.634287        44.4712 
 390   0.0000       1.638103        44.5751 
 391   0.0000       1.643668        44.7265 
 392   0.0000       1.647855        44.8404 
 393   0.0000       1.659939        45.1692 
 394   0.0000       1.660851        45.1941 
 395   0.0000       1.672363        45.5073 
 396   0.0000       1.678259        45.6678 
 397   0.0000       1.683956        45.8228 
 398   0.0000       1.688531        45.9473 
 399   0.0000       1.698088        46.2073 
 400   0.0000       1.702752        46.3342 
 401   0.0000       1.710681        46.5500 
 402   0.0000       1.717860        46.7453 
 403   0.0000       1.721602        46.8472 
 404   0.0000       1.727531        47.0085 
 405   0.0000       1.732915        47.1550 
 406   0.0000       1.745173        47.4886 
 407   0.0000       1.748820        47.5878 
 408   0.0000       1.756751        47.8036 
 409   0.0000       1.760199        47.8974 
 410   0.0000       1.764381        48.0112 
 411   0.0000       1.765861        48.0515 
 412   0.0000       1.774322        48.2818 
 413   0.0000       1.777849        48.3777 
 414   0.0000       1.779942        48.4347 
[...]
sum of PNO error estimates for the kept pairs         ...      -0.012091737716 Eh
                                                          --------------------
sum of all corrections                                         -0.035126758012
Initial total correlation energy                               -3.983869016964
Thresholds for map construction and integral transformation for fine MP2 and CCSD(T) calculation:
   TCutMKN   ...     1.0e-03
   TCutDO    ...     1.0e-02
   TCutPairs ...     1.0e-04
   TCutCMO   ...     1.0e-03
   TCutCPAO  ...     1.0e-03

Thresholds for map construction and integral transformation for strong Triples:
   TCutMKN   ...     1.0e-02
   TCutDO    ...     2.0e-02
   TCutCMO   ...     1.0e-03
   TCutCPAO  ...     1.0e-03

Thresholds for map construction and integral transformation for weak Triples:
   TCutMKN   ...     1.0e-01
   TCutDO    ...     4.0e-02
   TCutCMO   ...     1.0e-03
   TCutCPAO  ...     1.0e-03

--------------------------------
LOCAL RI TRANSFORMATION (IAVPAO)
--------------------------------

Orbital window:      25 to 90
Number of PAOs:     949
Basis functions:    949 (391 shells)
Aux. functions:    2335 (753 shells)
Use SHARK:           on

Processing maps (0.0 sec)
Average map sizes:
   Aux shells -> MOs              55.0
   Aux shells -> PAOs            949.0
   MOs        -> AO shells       330.2
   PAOs       -> AO shells       380.3

Calculating integrals (7.6 sec, 941.910 MB)
Sorting integrals (1.8 sec, 936.291 MB)
Total time for the integral transformation: 9.7 sec
--------------------------------
INITIAL GUESS AND PNO GENERATION
--------------------------------

PNO truncation parameters                   .... 
    PAOOverlapThresh   =        1.000e-08

    TCutPairs          =        1.000e-04
    TCutPNO            =        3.330e-07
    TCutPNOSingles     =        9.990e-09
    TCutMP2Pairs       =        1.000e-05
    TCutMKN            =        1.000e-03
    TCutDO             =        1.000e-02

Pair selection                          .... not used
Type of local MP2 treatment                 .... semi-local MP2
Strategy for PNO selection                  .... occupation number selection
Pair density normalization                  .... MP2 norm
Spin component scaling                      .... not used

   .... Finished loop over pairs

 PNO Occupation Number Statistics: 
  | Av. % of trace(Dij) retained        ...  97.509465145747
  | sigma^2 in % of trace(Dij) retained ...   5.36e+00
  | Av. % of trace(Di) retained         ...  99.999036874857
  | sigma^2 in % of trace(Di) retained  ...   9.97e-08
 Distributions of % trace(Dij) recovered:
  |       >= 99.9  ...   206 ( 15.4 % of all pairs)
  |   [80.0, 90.0) ...    13 (  1.0 % of all pairs)
  |   [90.0, 99.0) ...   838 ( 62.8 % of all pairs)
  |   [99.0, 99.9) ...   277 ( 20.8 % of all pairs)
 Distributions of % trace(Di) recovered :
  |       >= 99.9  ...    66 (100.0 % of all I-pairs )

Making pair pair interaction lists          ... done

                       ===========================
                        745 OF 1334 PAIRS ARE KEPT
                       ===========================

Total time spent in the initial guess                 ...    54.483 sec
SL-MP2 correlation energy (all non-screened pairs)    ...      -3.985806366262 Eh

Initial PNO correlation energy                        ...      -3.952998128838 Eh
sum of pair energies estimated for screened out pairs ...      -0.002458084229 Eh
sum of MP2 pair energies for pairs that were not kept ...      -0.020676365790 Eh
sum of PNO error estimates for the kept pairs         ...      -0.012224947412 Eh
                                                          --------------------
sum of all corrections                                         -0.035359397430
Initial total correlation energy                               -3.988357526268
Thresholds for map construction and integral transformation for fine MP2 and CCSD(T) calculation:
   TCutMKN   ...     1.0e-03
   TCutDO    ...     1.0e-02
   TCutPairs ...     1.0e-04
   TCutCMO   ...     1.0e-03
   TCutCPAO  ...     1.0e-03

Time for aux screen maps:            0.011
Time for maps after fine MP2:            0.090
-----------------------------
LOCAL RI TRANSFORMATION (IJV)
-----------------------------

Orbital window:      25 to 90
Basis functions:    949 (391 shells)
Aux. functions:    2335 (753 shells)
Use SHARK:           on

Processing maps (0.0 sec)
Average map sizes:
   Aux shells -> MOs(i)           45.0
   Aux shells -> MOs(j)           66.0
   MOs        -> AO shells       330.2

Calculating integrals (6.4 sec, 54.093 MB)
Sorting integrals (0.1 sec, 54.067 MB)
Total time for the integral transformation: 6.5 sec
--------------------------------
LOCAL RI TRANSFORMATION (VABPAO)
--------------------------------

Number of PAOs:     949
Basis functions:    949 (391 shells)
Aux. functions:    2335 (753 shells)
Use SHARK:           on

Processing maps (0.0 sec)
Average map sizes:
   Aux shells -> PAOs            878.9
   PAOs       -> AO shells       380.3

Calculating integrals (23.7 sec, 14173.745 MB)
Finished


-------------------------------------
Pair Pair Term precalculation with     
RI-(ij|mn) and (im|jn) transformation  
ON THE FLY                             
-------------------------------------

   IBatch   1 (of   8)              ... done (   51.266 sec)
   IBatch   2 (of   8)              ... done (   50.367 sec)
   IBatch   3 (of   8)              ... done (   54.843 sec)
   IBatch   4 (of   8)              ... done (   68.680 sec)
   IBatch   5 (of   8)              ... done (   60.330 sec)
   IBatch   6 (of   8)              ... done (   84.988 sec)
   IBatch   7 (of   8)              ... done (   88.885 sec)
   IBatch   8 (of   8)              ... done (   94.900 sec)
Total EXT                           ...         554.263 sec

---------------------
RI-PNO TRANSFORMATION
---------------------

Total Number of PNOs                   ... 23411
Average number of PNOs per pair        ...    31
Maximal number of PNOs per pair        ...    80
   #pairs with  1 -  5 PNOs   :    0
   #pairs with  6 - 10 PNOs   :   34
   #pairs with 11 - 15 PNOs   :  111
   #pairs with 16 - 20 PNOs   :  106
   #pairs with 21 - 25 PNOs   :   46
   #pairs with 26 - 30 PNOs   :   81
   #pairs with 31 - 35 PNOs   :  101
   #pairs with 36 - 40 PNOs   :   56
   #pairs with 41 - 45 PNOs   :   56
   #pairs with 46 - 50 PNOs   :   80
   #pairs with 51 - 55 PNOs   :    9
   #pairs with 56 - 60 PNOs   :   23
   #pairs with 61 - 65 PNOs   :   12
   #pairs with 71 - 75 PNOs   :   24
   #pairs with 76 - 80 PNOs   :    6

Generation of (ij|ab)[P] integrals            ... on
Generation of (ia|bc)[P],(ja|bc)[P] integrals ... on
Storage of 3 and 4 external integrals         ... on
Generation of ALL (ka|bc)[P] integrals        ... on
Keep RI integrals in memory                   ... off

Ibatch:  1 (of  1)
Starting 2-4 index PNO integral generation ... done

Timings:
Total PNO integral transformation time     ...        200.607 sec
Size of the 3-external file                ...       342 MB
Size of the 4-external file                ...      2319 MB
Size of the IKJL file                      ...         0 MB
Size of the all 3-external file            ...      8780 MB
Size of the 1-external file                ...        28 MB

Making pair/pair overlap matrices          ... done (   51.969 sec)
Size of the pair overlap file              ... 2628 MB
Redoing the guess amplitudes               ... done (    0.031 sec)

-------------------------
FINAL STARTUP INFORMATION
-------------------------

E(0)                                       ...  -1033.911150635
E(SL-MP2)                                  ...     -3.985806366
E(SL-MP2) including corrections            ...     -3.988357526
Initial E(tot)                             ...  -1037.899508161
<T|T>                                      ...      1.173783070
Number of pairs included                   ... 745
Total number of pairs                      ... 2211

------------------------------------------------
                  RHF COUPLED CLUSTER ITERATIONS
------------------------------------------------

Number of PNO amplitudes to be optimized   ...       932553
Number of non-PNO amplitudes               ...    548442180
Untruncated number of regular amplitudes   ...   1627658604

Iter       E(tot)           E(Corr)          Delta-E          Residual     Time
  0  -1037.899598997     -3.953088965      0.032717402      0.016815950   54.93
                           *** Turning on DIIS ***
  1  -1038.062272307     -4.115762275     -0.162673310      0.008561912   47.17
  2  -1038.167295459     -4.220785427     -0.105023152      0.004154598   47.63
  3  -1038.185213850     -4.238703818     -0.017918392      0.002261400   47.25
  4  -1038.190150304     -4.243640273     -0.004936454      0.001315574   47.34
  5  -1038.191640412     -4.245130380     -0.001490108      0.000691451   47.59
  6  -1038.192094997     -4.245584965     -0.000454585      0.000261241   47.74
  7  -1038.192130235     -4.245620203     -0.000035238      0.000122557   47.50
  8  -1038.192144040     -4.245634008     -0.000013805      0.000063093   47.55
  9  -1038.192128995     -4.245618964      0.000015044      0.000037196   47.29
 10  -1038.192132590     -4.245622558     -0.000003595      0.000014828   47.72
 11  -1038.192131396     -4.245621364      0.000001194      0.000004582   47.58
 12  -1038.192131954     -4.245621922     -0.000000558      0.000001461   47.45
 13  -1038.192131662     -4.245621630      0.000000292      0.000000907   47.31
               --- The Coupled-Cluster iterations have converged ---

----------------------
COUPLED CLUSTER ENERGY
----------------------

E(0)                                       ...  -1033.911150635
E(CORR)(strong-pairs)                      ...     -4.245621630
E(CORR)(weak-pairs)                        ...     -0.035359397
E(CORR)(corrected)                         ...     -4.280981028
E(TOT)                                     ...  -1038.192131662
Singles Norm <S|S>**1/2                    ...      0.118719576  
T1 diagnostic                              ...      0.010333213  

------------------
LARGEST AMPLITUDES
------------------
  40-> 91  40-> 91       0.046943
  37-> 93  37-> 93       0.046711
  35-> 91  35-> 91       0.046509
  28-> 92  28-> 92       0.046151
  42-> 93  42-> 93       0.046053
  83-> 95  83-> 95       0.045210
  39-> 91  39-> 91       0.044998
  33-> 91  33-> 91       0.044928
  87-> 95  87-> 95       0.044925
  86-> 95  86-> 95       0.044877
  85-> 95  85-> 95       0.044854
  31-> 91  31-> 91       0.044842
  82-> 95  82-> 95       0.044831
  90-> 91  90-> 91       0.043721
  88-> 95  88-> 95       0.043603
  89-> 95  89-> 95       0.043168


-------------------------------------------
DLPNO BASED TRIPLES CORRECTION
-------------------------------------------

Singles multiplier          ...  1.000000
TCutTNO                     ... 1.000e-09
TCutMP2Pairs                ... 1.000e-05
TCutDOStrong                ... 2.000e-02
TCutMKNStrong               ... 1.000e-02
TCutDOWeak                  ... 4.000e-02
TCutMKNWeak                 ... 1.000e-01

Fragment selection                          .... not used
Fock matrix occ-virt block is zero --> Setting DT_in_Triples to false.
Number of Triples that are to be computed   ...      8412

 . . . . . . . . .             (    132.562 sec)
 . . . . . . . . .
10% done  
20% done               (    163.113 sec)
 . . . . . . . . .
30% done  
40% done               (    181.195 sec)
 . . . . . . . . .
50% done  
60% done  
70% done               (    258.485 sec)
 . . . . . . . . .
80% done  
90% done               (    199.506 sec)
Triples timings:
Total time for T0               ...  1005.362 sec
Total time for Iterative (T)    ...     0.000 sec
Total time of overall (T)       ...  1042.039 sec

Triples List generation         ...     0.000 sec
TNO generation                  ...    70.409 sec
Pair density generation         ...     0.027 sec
Look up tables                  ...     0.000 sec
Generating 3-index integrals    ...   629.412 sec
  Make 4-ind.int. from 3-ind.int...    55.068 sec
  Projecting amplitudes (D + S) ...   195.973 sec
  Downprojecting integrals      ...     0.011 sec
  Energy contr. (sum over a,b,c)...    11.967 sec
Fitting ET(->0)                 ...     0.000 sec

Everything after 3-index        ...   305.451 sec

Timing details:
 TNO integrals                  ...   677.990 sec
   Reading 3-index integrals    ...    54.929 sec
   Sorting integrals            ...   135.075 sec
       Sorting integrals 1      ...     0.008 sec
       Sorting integrals 2      ...   115.433 sec
       Sorting integrals 3      ...     4.700 sec
       Sorting integrals 4      ...     0.538 sec
       Sorting integrals 5      ...     1.391 sec
       Sorting integrals 6      ...    13.005 sec
   Calculating local VM**-1/2   ...     3.488 sec
   Orthogonal. integrals        ...     8.079 sec
   Multipl. 3-index integrals   ...   476.419 sec
   All concerning IRIab (w/TNO) ...    28.121 sec

 Calculate W0/W1                ...    42.390 sec
 W 3-ext contribution           ...    20.464 sec
 W 3-int contribution           ...     8.981 sec
 Sorting W                      ...    11.603 sec

 V exchange contribution        ...     3.615 sec

 Timings for Triples without generation
     of 3-index integrals       ...   305.428 sec
       0 weak pairs             ...   207.477 sec
       1 weak pair              ...    97.951 sec
       2 weak pairs             ...     0.000 sec
       3 weak pairs             ...     0.000 sec
  Extra time for extrapolation  ...     0.000 sec

Number of Triples   (0, 1, 2, 3 weak pairs; overall):   4642    3770       0       0  (  8412)
Number of Atoms     (0, 1, 2, 3 weak pairs; overall):   18.1    14.9     0.0     0.0  (    54)
Number of PAOs      (0, 1, 2, 3 weak pairs; overall):  382.6   333.6     0.0     0.0  (   949)
Number of AuxFcns   (0, 1, 2, 3 weak pairs; overall):  473.7   354.1     0.0     0.0  (  2335)
Number of TNOs      (0, 1, 2, 3 weak pairs         ):   85.5    56.8     0.0     0.0
Aver. Number of NTNO, Atoms, PAOs, AuxFcns / Triples:   8412    72.7    16.6   360.6   420.1

Triples Correction (T)                     ...     -0.193190337
Final correlation energy                   ...     -4.474171365
E(CCSD)                                    ...  -1038.192131662
E(CCSD(T))                                 ...  -1038.385321999



--------------------------------------------------------------------------------
                                    TIMINGS
--------------------------------------------------------------------------------


Total execution time                   ...     2946.687 sec

Localization of occupied MO's          ...        6.268 sec (  0.2%)
Fock Matrix Formation                  ...      268.772 sec (  9.1%)
Global overlap, Fock, MKN matrices     ...        1.541 sec (  0.1%)
Differential overlap integrals         ...        4.536 sec (  0.2%)
Organizing maps                        ...        0.232 sec (  0.0%)
RI 3-index integral generations        ...       50.475 sec (  1.7%)
RI-PNO integral transformation         ...      807.424 sec ( 27.4%)
Initial Guess                          ...       92.188 sec (  3.1%)
DIIS Solver                            ...        1.767 sec (  0.1%)
State Vector Update                    ...        0.086 sec (  0.0%)
Sigma-vector construction              ...      670.197 sec ( 22.7%)
  <0|H|D>                              ...        0.003 sec (  0.0% of sigma)
  <D|H|D>(0-ext)                       ...       39.807 sec (  5.9% of sigma)
  <D|H|D>(2-ext Fock)                  ...        0.162 sec (  0.0% of sigma)
  <D|H|D>(2-ext)                       ...       90.245 sec ( 13.5% of sigma)
  <D|H|D>(4-ext)                       ...       42.551 sec (  6.3% of sigma)
  <D|H|D>(4-ext-corr)                  ...      238.141 sec ( 35.5% of sigma)
  CCSD doubles correction              ...        1.366 sec (  0.2% of sigma)
  <S|H|S>                              ...        7.747 sec (  1.2% of sigma)
  <S|H|D>(1-ext)                       ...        3.721 sec (  0.6% of sigma)
  <D|H|S>(1-ext)                       ...        0.594 sec (  0.1% of sigma)
  <S|H|D>(3-ext)                       ...        3.049 sec (  0.5% of sigma)
  CCSD singles correction              ...        0.007 sec (  0.0% of sigma)
  Fock-dressing                        ...      178.409 sec ( 26.6% of sigma)
  Singles amplitudes                   ...        5.256 sec (  0.8% of sigma)
  (ik|jl)-dressing                     ...       24.342 sec (  3.6% of sigma)
  (ij|ab),(ia|jb)-dressing             ...       10.779 sec (  1.6% of sigma)
  Pair energies                        ...        0.047 sec (  0.0% of sigma)
Total Time for computing (T)           ...     1042.060 sec ( 35.4% of ALL)


Maximum memory used throughout the entire MDCI-calculation: 3450.7 MB

-------------------------   --------------------
FINAL SINGLE POINT ENERGY     -1038.385321999210
-------------------------   --------------------


                            ***************************************
                            *     ORCA property calculations      *
                            ***************************************


  WARNING: The energy has been calculated at the MDCI level but the densities
           used in the property calculations are still SCF densities
           MDCI response densities have not been calculated 
           use %mdci Density linearized end
           or  %mdci Density unrelaxed end
           or  %mdci Density orbopt end

                                    ---------------------
                                    Active property flags
                                    ---------------------
   (+) Dipole Moment


------------------------------------------------------------------------------
                       ORCA ELECTRIC PROPERTIES CALCULATION
------------------------------------------------------------------------------

Dipole Moment Calculation                       ... on
Quadrupole Moment Calculation                   ... off
Polarizability Calculation                      ... off
GBWName                                         ... Fentanyl_OProt_39.gbw
Electron density                                ... Fentanyl_OProt_39.scfp
The origin for moment calculation is the CENTER OF MASS  = (-0.749439,  0.696326  0.406193)

-------------
DIPOLE MOMENT
-------------
                                X             Y             Z
Electronic contribution:      3.62754      -4.69042      -0.99180
Nuclear contribution   :     -1.25036       4.21799       0.75278
                        -----------------------------------------
Total Dipole Moment    :      2.37718      -0.47243      -0.23902
                        -----------------------------------------
Magnitude (a.u.)       :      2.43542
Magnitude (Debye)      :      6.19035



--------------------
Rotational spectrum 
--------------------
 
Rotational constants in cm-1:     0.013708     0.004599     0.003943 
Rotational constants in MHz :   410.960115   137.876900   118.210541 

 Dipole components along the rotational axes: 
x,y,z [a.u.] :    -2.432777    -0.008993     0.113129 
x,y,z [Debye]:    -6.183629    -0.022859     0.287551 

 

Timings for individual modules:

Sum of individual times         ...     5149.042 sec (=  85.817 min)
GTO integral calculation        ...        2.500 sec (=   0.042 min)   0.0 %
SCF iterations                  ...     2196.168 sec (=  36.603 min)  42.7 %
MDCI module                     ...     2950.373 sec (=  49.173 min)  57.3 %
                             ****ORCA TERMINATED NORMALLY****
TOTAL RUN TIME: 0 days 1 hours 25 minutes 50 seconds 912 msec
