
Lmod is automatically replacing "intel/2020.1.217" with "gcc/10.3.0".


The following have been reloaded with a version change:
  1) gcccore/.9.3.0 => gcccore/.10.3.0        3) openmpi/4.0.3 => openmpi/4.1.1
  2) libfabric/1.10.1 => libfabric/1.12.1     4) ucx/1.8.0 => ucx/1.9.0

To execute ORCA, run: 
   ${EBROOTORCA}/orca orca.inp > orca.out

                                 *****************
                                 * O   R   C   A *
                                 *****************

                                            #,                                       
                                            ###                                      
                                            ####                                     
                                            #####                                    
                                            ######                                   
                                           ########,                                 
                                     ,,################,,,,,                         
                               ,,#################################,,                 
                          ,,##########################################,,             
                       ,#########################################, ''#####,          
                    ,#############################################,,   '####,        
                  ,##################################################,,,,####,       
                ,###########''''           ''''###############################       
              ,#####''   ,,,,##########,,,,          '''####'''          '####       
            ,##' ,,,,###########################,,,                        '##       
           ' ,,###''''                  '''############,,,                           
         ,,##''                                '''############,,,,        ,,,,,,###''
      ,#''                                            '''#######################'''  
     '                                                          ''''####''''         
             ,#######,   #######,   ,#######,      ##                                
            ,#'     '#,  ##    ##  ,#'     '#,    #''#        ######   ,####,        
            ##       ##  ##   ,#'  ##            #'  '#       #        #'  '#        
            ##       ##  #######   ##           ,######,      #####,   #    #        
            '#,     ,#'  ##    ##  '#,     ,#' ,#      #,         ##   #,  ,#        
             '#######'   ##     ##  '#######'  #'      '#     #####' # '####'        



                  #######################################################
                  #                        -***-                        #
                  #          Department of theory and spectroscopy      #
                  #    Directorship and core code : Frank Neese         #
                  #        Max Planck Institute fuer Kohlenforschung    #
                  #                Kaiser Wilhelm Platz 1               #
                  #                 D-45470 Muelheim/Ruhr               #
                  #                      Germany                        #
                  #                                                     #
                  #                  All rights reserved                #
                  #                        -***-                        #
                  #######################################################


                         Program Version 5.0.4 -  RELEASE  -


 With contributions from (in alphabetic order):
   Daniel Aravena         : Magnetic Suceptibility
   Michael Atanasov       : Ab Initio Ligand Field Theory (pilot matlab implementation)
   Alexander A. Auer      : GIAO ZORA, VPT2 properties, NMR spectrum
   Ute Becker             : Parallelization
   Giovanni Bistoni       : ED, misc. LED, open-shell LED, HFLD
   Martin Brehm           : Molecular dynamics
   Dmytro Bykov           : SCF Hessian
   Vijay G. Chilkuri      : MRCI spin determinant printing, contributions to CSF-ICE
   Dipayan Datta          : RHF DLPNO-CCSD density
   Achintya Kumar Dutta   : EOM-CC, STEOM-CC
   Dmitry Ganyushin       : Spin-Orbit,Spin-Spin,Magnetic field MRCI
   Miquel Garcia          : C-PCM and meta-GGA Hessian, CC/C-PCM, Gaussian charge scheme
   Yang Guo               : DLPNO-NEVPT2, F12-NEVPT2, CIM, IAO-localization
   Andreas Hansen         : Spin unrestricted coupled pair/coupled cluster methods
   Benjamin Helmich-Paris : MC-RPA, TRAH-SCF, COSX integrals
   Lee Huntington         : MR-EOM, pCC
   Robert Izsak           : Overlap fitted RIJCOSX, COSX-SCS-MP3, EOM
   Marcus Kettner         : VPT2
   Christian Kollmar      : KDIIS, OOCD, Brueckner-CCSD(T), CCSD density, CASPT2, CASPT2-K
   Simone Kossmann        : Meta GGA functionals, TD-DFT gradient, OOMP2, MP2 Hessian
   Martin Krupicka        : Initial AUTO-CI
   Lucas Lang             : DCDCAS
   Marvin Lechner         : AUTO-CI (C++ implementation), FIC-MRCC
   Dagmar Lenk            : GEPOL surface, SMD
   Dimitrios Liakos       : Extrapolation schemes; Compound Job, initial MDCI parallelization
   Dimitrios Manganas     : Further ROCIS development; embedding schemes
   Dimitrios Pantazis     : SARC Basis sets
   Anastasios Papadopoulos: AUTO-CI, single reference methods and gradients
   Taras Petrenko         : DFT Hessian,TD-DFT gradient, ASA, ECA, R-Raman, ABS, FL, XAS/XES, NRVS
   Peter Pinski           : DLPNO-MP2, DLPNO-MP2 Gradient
   Christoph Reimann      : Effective Core Potentials
   Marius Retegan         : Local ZFS, SOC
   Christoph Riplinger    : Optimizer, TS searches, QM/MM, DLPNO-CCSD(T), (RO)-DLPNO pert. Triples
   Tobias Risthaus        : Range-separated hybrids, TD-DFT gradient, RPA, STAB
   Michael Roemelt        : Original ROCIS implementation
   Masaaki Saitow         : Open-shell DLPNO-CCSD energy and density
   Barbara Sandhoefer     : DKH picture change effects
   Avijit Sen             : IP-ROCIS
   Kantharuban Sivalingam : CASSCF convergence, NEVPT2, FIC-MRCI
   Bernardo de Souza      : ESD, SOC TD-DFT
   Georgi Stoychev        : AutoAux, RI-MP2 NMR, DLPNO-MP2 response
   Willem Van den Heuvel  : Paramagnetic NMR
   Boris Wezisla          : Elementary symmetry handling
   Frank Wennmohs         : Technical directorship


 We gratefully acknowledge several colleagues who have allowed us to
 interface, adapt or use parts of their codes:
   Stefan Grimme, W. Hujo, H. Kruse, P. Pracht,  : VdW corrections, initial TS optimization,
                  C. Bannwarth, S. Ehlert          DFT functionals, gCP, sTDA/sTD-DF
   Ed Valeev, F. Pavosevic, A. Kumar             : LibInt (2-el integral package), F12 methods
   Garnet Chan, S. Sharma, J. Yang, R. Olivares  : DMRG
   Ulf Ekstrom                                   : XCFun DFT Library
   Mihaly Kallay                                 : mrcc  (arbitrary order and MRCC methods)
   Jiri Pittner, Ondrej Demel                    : Mk-CCSD
   Frank Weinhold                                : gennbo (NPA and NBO analysis)
   Christopher J. Cramer and Donald G. Truhlar   : smd solvation model
   Lars Goerigk                                  : TD-DFT with DH, B97 family of functionals
   V. Asgeirsson, H. Jonsson                     : NEB implementation
   FAccTs GmbH                                   : IRC, NEB, NEB-TS, DLPNO-Multilevel, CI-OPT
                                                   MM, QMMM, 2- and 3-layer-ONIOM, Crystal-QMMM,
                                                   LR-CPCM, SF, NACMEs, symmetry and pop. for TD-DFT,
                                                   nearIR, NL-DFT gradient (VV10), updates on ESD,
                                                   ML-optimized integration grids
   S Lehtola, MJT Oliveira, MAL Marques          : LibXC Library
   Liviu Ungur et al                             : ANISO software


 Your calculation uses the libint2 library for the computation of 2-el integrals
 For citations please refer to: http://libint.valeyev.net

 Your ORCA version has been built with support for libXC version: 5.1.0
 For citations please refer to: https://tddft.org/programs/libxc/

 This ORCA versions uses:
   CBLAS   interface :  Fast vector & matrix operations
   LAPACKE interface :  Fast linear algebra routines
   SCALAPACK package :  Parallel linear algebra routines
   Shared memory     :  Shared parallel matrices
   BLAS/LAPACK       :  OpenBLAS 0.3.15  USE64BITINT DYNAMIC_ARCH NO_AFFINITY Haswell SINGLE_THREADED
        Core in use  :  Haswell
   Copyright (c) 2011-2014, The OpenBLAS Project


Your calculation utilizes the atom-pairwise dispersion correction
with the Becke-Johnson damping scheme (D3BJ)
Cite in your paper:
S.Grimme, S.Ehrlich, L.Goerigk, J Comput Chem, (2011), 32, 1456–1465 
S.Grimme, J.Antony, S.Ehrlich and H.Krieg, J.Chem.Phys., 132, (2010), 154104 
   

================================================================================

----- Orbital basis set information -----
Your calculation utilizes the basis: def2-TZVP
   F. Weigend and R. Ahlrichs, Phys. Chem. Chem. Phys. 7, 3297 (2005).

----- AuxJ basis set information -----
Your calculation utilizes the auxiliary basis: def2/J
   F. Weigend, Phys. Chem. Chem. Phys. 8, 1057 (2006).

================================================================================
                                        WARNINGS
                       Please study these warnings very carefully!
================================================================================


WARNING: Geometry Optimization
  ===> : Switching off AutoStart
         For restart on a previous wavefunction, please use MOREAD

INFO   : the flag for use of the SHARK integral package has been found!

================================================================================
                                       INPUT FILE
================================================================================
NAME = Fentanyl_OProt_12.inp
|  1> ! wB97X-D3BJ TightOpt Freq def2-TZVP def2/J RIJCOSX TightSCF defgrid3 CHELPG
|  2> %maxcore 3400
|  3> 
|  4> %pal nprocs 8 
|  5> end
|  6> 
|  7> %chelpg
|  8> grid 0.1
|  9> rmax 3.0
| 10> end
| 11> 
| 12> *xyz 1 1
| 13> O         2.4188092053     1.9276066845     1.1609773199
| 14> N        -1.8929724007    -0.4256616535    -1.0859800734
| 15> N         2.1631921053     0.0533077101    -0.0440346629
| 16> C         0.7160228024     0.2848294543    -0.1736600684
| 17> C         0.3061762301     0.4260416441    -1.6382045671
| 18> C        -0.0860754905    -0.8470825602     0.4652238893
| 19> C        -1.2018412115     0.6847278432    -1.6984311221
| 20> C        -1.5764318072    -0.5246197761     0.3204158782
| 21> C        -3.2900042175    -0.5575908931    -1.4422183180
| 22> C        -4.2087602994     0.6503112068    -1.1617120498
| 23> C         2.7087703652    -1.1221947143    -0.6668884294
| 24> C         2.9413107260     0.8642506664     0.6053332964
| 25> C        -4.2992989268     1.0063886770     0.2944324563
| 26> C         4.4087537924     0.5918249547     0.7174774503
| 27> C         2.7707283448    -2.3118532619     0.0454726991
| 28> C         3.1611333272    -1.0571276641    -1.9776227243
| 29> C         5.1725857152     1.6390527438     1.5234862977
| 30> C        -3.8077535787     2.2172867114     0.7665976071
| 31> C        -4.8784006746     0.1244476563     1.2002747290
| 32> C         3.2762612347    -3.4458204186    -0.5678648231
| 33> C         3.6644395441    -2.1974136273    -2.5807264195
| 34> C         3.7199443998    -3.3903067463    -1.8788310629
| 35> C        -3.8767874929     2.5339282482     2.1122626267
| 36> C        -4.9458515538     0.4366640651     2.5457029402
| 37> C        -4.4404218416     1.6408121066     3.0069030900
| 38> H         0.4956486164     1.2179530575     0.3519798613
| 39> H         0.5220434972    -0.4975922679    -2.1751350331
| 40> H         0.8409144806     1.2522285228    -2.1096250266
| 41> H         0.1661299142    -0.9489585698     1.5217454162
| 42> H         0.1198737659    -1.7855507822    -0.0494512663
| 43> H        -1.4205427218     1.6450107525    -1.2003082465
| 44> H        -1.5118506915     0.7579201912    -2.7420098853
| 45> H        -2.1640289101    -1.3323730194     0.7581377462
| 46> H        -1.8020377306     0.4001500656     0.8763918797
| 47> H        -3.3246100447    -0.7690511844    -2.5156709742
| 48> H        -3.6725391109    -1.4345577973    -0.9164960252
| 49> H        -5.2027360269     0.3867732184    -1.5299163144
| 50> H        -3.8609445354     1.5123196289    -1.7337106553
| 51> H         4.8238942659     0.5229452080    -0.2922328796
| 52> H         4.5419290745    -0.3959625772     1.1679363576
| 53> H         2.4238021555    -2.3515702522     1.0664338510
| 54> H         3.1156621225    -0.1262028921    -2.5213934725
| 55> H         4.8234601117     1.6887342173     2.5541495428
| 56> H         5.1171527824     2.6240723214     1.0615814973
| 57> H         6.2224241042     1.3615070046     1.5559044033
| 58> H        -3.3746203030     2.9252897140     0.0722418352
| 59> H        -5.2885922977    -0.8100524391     0.8452041183
| 60> H         3.3195911893    -4.3727641736    -0.0185283922
| 61> H         4.0103172162    -2.1508402451    -3.6010522826
| 62> H         4.1094205758    -4.2766560834    -2.3534706748
| 63> H        -3.4953718863     3.4825413346     2.4614223265
| 64> H        -5.4012255077    -0.2575215661     3.2361601869
| 65> H        -4.4965414432     1.8869291837     4.0564444796
| 66> H         3.0849226530     2.4666820277     1.6233764755
| 67> *
| 68> 
| 69> 
| 70>                          ****END OF INPUT****
================================================================================

                       *****************************
                       * Geometry Optimization Run *
                       *****************************

Geometry optimization settings:
Update method            Update   .... BFGS
Choice of coordinates    CoordSys .... Z-matrix Internals
Initial Hessian          InHess   .... Almoef's Model

Convergence Tolerances:
Energy Change            TolE     ....  1.0000e-06 Eh
Max. Gradient            TolMAXG  ....  1.0000e-04 Eh/bohr
RMS Gradient             TolRMSG  ....  3.0000e-05 Eh/bohr
Max. Displacement        TolMAXD  ....  1.0000e-03 bohr
RMS Displacement         TolRMSD  ....  6.0000e-04 bohr
Strict Convergence                ....  False
------------------------------------------------------------------------------
                        ORCA OPTIMIZATION COORDINATE SETUP
------------------------------------------------------------------------------

The optimization will be done in new redundant internal coordinates
Making redundant internal coordinates   ...  (new redundants) done
Evaluating the initial hessian          ...  (Almloef) done
Evaluating the coordinates              ...  done
Calculating the B-matrix                .... done
Calculating the G-matrix                .... done
Diagonalizing the G-matrix              .... done
Small eigenvalue found = 1.764e-03
Small eigenvalue found = 2.769e-03
Small eigenvalue found = 4.882e-03
Small eigenvalue found = 6.072e-03
Small eigenvalue found = 7.195e-03
Small eigenvalue found = 1.784e-02
Small eigenvalue found = 2.407e-02
The first mode is                       ....  148
The number of degrees of freedom        ....  156

    -----------------------------------------------------------------
                    Redundant Internal Coordinates


    -----------------------------------------------------------------
         Definition                    Initial Value    Approx d2E/dq
    -----------------------------------------------------------------
      1. B(C   3,N   2)                  1.4713         0.415123   
      2. B(C   4,C   3)                  1.5274         0.377226   
      3. B(C   5,C   3)                  1.5273         0.377247   
      4. B(C   6,C   4)                  1.5312         0.371892   
      5. B(C   6,N   1)                  1.4442         0.458561   
      6. B(C   7,C   5)                  1.5317         0.371245   
      7. B(C   7,N   1)                  1.4450         0.457271   
      8. B(C   8,N   1)                  1.4478         0.452609   
      9. B(C   9,C   8)                  1.5433         0.355740   
     10. B(C  10,N   2)                  1.4378         0.469393   
     11. B(C  11,N   2)                  1.2980         0.784644   
     12. B(C  11,O   0)                  1.3086         0.754605   
     13. B(C  12,C   9)                  1.5018         0.414381   
     14. B(C  13,C  11)                  1.4967         0.422151   
     15. B(C  14,C  10)                  1.3880         0.629370   
     16. B(C  15,C  10)                  1.3881         0.629115   
     17. B(C  16,C  13)                  1.5264         0.378603   
     18. B(C  17,C  12)                  1.3895         0.625845   
     19. B(C  18,C  12)                  1.3906         0.623453   
     20. B(C  19,C  14)                  1.3848         0.636883   
     21. B(C  20,C  15)                  1.3847         0.637157   
     22. B(C  21,C  20)                  1.3852         0.635951   
     23. B(C  21,C  19)                  1.3851         0.636089   
     24. B(C  22,C  17)                  1.3841         0.638394   
     25. B(C  23,C  18)                  1.3828         0.641483   
     26. B(C  24,C  23)                  1.3850         0.636453   
     27. B(C  24,C  22)                  1.3841         0.638496   
     28. B(H  25,C   3)                  1.0934         0.355595   
     29. B(H  26,C   4)                  1.0900         0.360165   
     30. B(H  27,C   4)                  1.0912         0.358486   
     31. B(H  28,C   5)                  1.0910         0.358814   
     32. B(H  29,C   5)                  1.0900         0.360144   
     33. B(H  30,C   6)                  1.1037         0.342456   
     34. B(H  31,C   6)                  1.0911         0.358635   
     35. B(H  32,C   7)                  1.0906         0.359351   
     36. B(H  33,C   7)                  1.1024         0.344110   
     37. B(H  34,C   8)                  1.0946         0.354028   
     38. B(H  35,C   8)                  1.0917         0.357871   
     39. B(H  36,C   9)                  1.0923         0.357133   
     40. B(H  37,C   9)                  1.0914         0.358215   
     41. B(H  38,C  13)                  1.0939         0.354987   
     42. B(H  39,C  13)                  1.0938         0.355123   
     43. B(H  40,C  14)                  1.0790         0.374914   
     44. B(H  41,C  15)                  1.0791         0.374864   
     45. B(H  42,C  16)                  1.0893         0.360997   
     46. B(H  43,C  16)                  1.0894         0.360955   
     47. B(H  44,C  16)                  1.0864         0.364907   
     48. B(H  45,C  17)                  1.0821         0.370665   
     49. B(H  46,C  18)                  1.0806         0.372799   
     50. B(H  47,C  19)                  1.0784         0.375824   
     51. B(H  48,C  20)                  1.0784         0.375829   
     52. B(H  49,C  21)                  1.0782         0.376006   
     53. B(H  50,C  22)                  1.0804         0.373031   
     54. B(H  51,C  23)                  1.0798         0.373835   
     55. B(H  52,C  24)                  1.0795         0.374300   
     56. B(H  53,O   0)                  0.9737         0.494406   
     57. A(C  11,O   0,H  53)          112.2321         0.379567   
     58. A(C   7,N   1,C   8)          116.4003         0.384030   
     59. A(C   6,N   1,C   8)          115.3091         0.384218   
     60. A(C   6,N   1,C   7)          111.1355         0.384904   
     61. A(C   3,N   2,C  11)          122.3720         0.415922   
     62. A(C  10,N   2,C  11)          120.0016         0.425141   
     63. A(C   3,N   2,C  10)          117.6263         0.380032   
     64. A(C   4,C   3,C   5)          109.1897         0.364565   
     65. A(N   2,C   3,H  25)          106.8685         0.327340   
     66. A(N   2,C   3,C   4)          111.2825         0.368281   
     67. A(N   2,C   3,C   5)          111.2893         0.368284   
     68. A(C   5,C   3,H  25)          108.9971         0.324169   
     69. A(C   4,C   3,H  25)          109.1460         0.324166   
     70. A(C   3,C   4,C   6)          108.5181         0.363675   
     71. A(C   3,C   4,H  27)          110.6557         0.324598   
     72. A(C   6,C   4,H  26)          108.5925         0.324088   
     73. A(H  26,C   4,H  27)          109.3733         0.290643   
     74. A(C   6,C   4,H  27)          109.7373         0.323840   
     75. A(C   3,C   4,H  26)          109.9298         0.324847   
     76. A(C   3,C   5,H  29)          109.9589         0.324847   
     77. A(H  28,C   5,H  29)          109.4631         0.290682   
     78. A(C   3,C   5,C   7)          108.3860         0.363571   
     79. A(C   3,C   5,H  28)          110.6642         0.324649   
     80. A(C   7,C   5,H  29)          108.6915         0.323992   
     81. A(C   7,C   5,H  28)          109.6424         0.323796   
     82. A(C   4,C   6,H  31)          109.1940         0.323862   
     83. A(C   4,C   6,H  30)          108.9288         0.321421   
     84. A(N   1,C   6,H  30)          112.5035         0.330701   
     85. A(N   1,C   6,C   4)          108.9492         0.373724   
     86. A(H  30,C   6,H  31)          108.4818         0.288373   
     87. A(N   1,C   6,H  31)          108.7360         0.333240   
     88. A(H  32,C   7,H  33)          107.9778         0.288681   
     89. A(N   1,C   7,H  33)          112.8674         0.330810   
     90. A(C   5,C   7,H  33)          109.1511         0.321582   
     91. A(C   5,C   7,H  32)          109.2918         0.323875   
     92. A(N   1,C   7,H  32)          108.8656         0.333194   
     93. A(N   1,C   7,C   5)          108.6378         0.373430   
     94. A(C   9,C   8,H  35)          109.4264         0.321401   
     95. A(N   1,C   8,H  35)          107.0278         0.332401   
     96. A(C   9,C   8,H  34)          108.0963         0.320834   
     97. A(N   1,C   8,H  34)          106.8227         0.331807   
     98. A(N   1,C   8,C   9)          117.2845         0.370044   
     99. A(H  34,C   8,H  35)          107.8177         0.289782   
    100. A(C   8,C   9,H  37)          109.4619         0.321451   
    101. A(H  36,C   9,H  37)          107.6918         0.290223   
    102. A(C  12,C   9,H  37)          109.8833         0.329620   
    103. A(C   8,C   9,C  12)          113.4342         0.366772   
    104. A(C  12,C   9,H  36)          109.2206         0.329455   
    105. A(C   8,C   9,H  36)          106.9560         0.321292   
    106. A(C  14,C  10,C  15)          120.6797         0.436385   
    107. A(N   2,C  10,C  15)          119.6279         0.411399   
    108. A(N   2,C  10,C  14)          119.6914         0.411429   
    109. A(O   0,C  11,N   2)          118.7338         0.463273   
    110. A(N   2,C  11,C  13)          120.7651         0.419889   
    111. A(O   0,C  11,C  13)          120.5011         0.416979   
    112. A(C  17,C  12,C  18)          118.5974         0.435235   
    113. A(C   9,C  12,C  18)          120.4207         0.404385   
    114. A(C   9,C  12,C  17)          120.9819         0.404658   
    115. A(C  11,C  13,C  16)          113.9114         0.371903   
    116. A(H  38,C  13,H  39)          106.0853         0.289554   
    117. A(C  16,C  13,H  39)          109.9501         0.324290   
    118. A(C  11,C  13,H  39)          108.3371         0.330160   
    119. A(C  16,C  13,H  38)          109.9200         0.324269   
    120. A(C  11,C  13,H  38)          108.3236         0.330139   
    121. A(C  10,C  14,C  19)          119.3956         0.437351   
    122. A(C  19,C  14,H  40)          120.4184         0.356952   
    123. A(C  10,C  14,H  40)          120.1855         0.356234   
    124. A(C  10,C  15,C  20)          119.4147         0.437353   
    125. A(C  20,C  15,H  41)          120.4164         0.356971   
    126. A(C  10,C  15,H  41)          120.1682         0.356201   
    127. A(H  43,C  16,H  44)          107.0277         0.291555   
    128. A(H  42,C  16,H  44)          107.0456         0.291560   
    129. A(C  13,C  16,H  44)          108.9091         0.325742   
    130. A(H  42,C  16,H  43)          110.0985         0.291062   
    131. A(C  13,C  16,H  43)          111.7780         0.325159   
    132. A(C  13,C  16,H  42)          111.7483         0.325165   
    133. A(C  12,C  17,C  22)          120.8014         0.437096   
    134. A(C  22,C  17,H  45)          119.6112         0.356405   
    135. A(C  12,C  17,H  45)          119.5847         0.355207   
    136. A(C  23,C  18,H  46)          119.7658         0.357046   
    137. A(C  12,C  18,H  46)          119.5067         0.355322   
    138. A(C  12,C  18,C  23)          120.7245         0.437174   
    139. A(C  14,C  19,C  21)          120.2197         0.438190   
    140. A(C  21,C  19,H  47)          120.2466         0.357024   
    141. A(C  14,C  19,H  47)          119.5336         0.357100   
    142. A(C  15,C  20,C  21)          120.2020         0.438207   
    143. A(C  21,C  20,H  48)          120.2509         0.357012   
    144. A(C  15,C  20,H  48)          119.5469         0.357127   
    145. A(C  19,C  21,C  20)          120.0839         0.438074   
    146. A(C  20,C  21,H  49)          119.9564         0.357040   
    147. A(C  19,C  21,H  49)          119.9598         0.357053   
    148. A(C  24,C  22,H  50)          120.0948         0.356801   
    149. A(C  17,C  22,H  50)          119.8312         0.356791   
    150. A(C  17,C  22,C  24)          120.0728         0.438676   
    151. A(C  24,C  23,H  51)          119.9943         0.356737   
    152. A(C  18,C  23,H  51)          119.8382         0.357214   
    153. A(C  18,C  23,C  24)          120.1656         0.438804   
    154. A(C  23,C  24,H  52)          120.2006         0.356812   
    155. A(C  22,C  24,H  52)          120.1655         0.357006   
    156. A(C  22,C  24,C  23)          119.6296         0.438435   
    157. D(C   4,C   3,N   2,C  11)    119.5790         0.014697   
    158. D(C   4,C   3,N   2,C  10)    -60.5203         0.014697   
    159. D(H  25,C   3,N   2,C  10)   -179.5931         0.014697   
    160. D(C   5,C   3,N   2,C  11)   -118.3900         0.014697   
    161. D(H  25,C   3,N   2,C  11)      0.5062         0.014697   
    162. D(C   5,C   3,N   2,C  10)     61.5107         0.014697   
    163. D(C   6,C   4,C   3,N   2)   -179.1668         0.011350   
    164. D(H  27,C   4,C   3,N   2)    -58.7103         0.011350   
    165. D(H  27,C   4,C   3,C   5)    178.0498         0.011350   
    166. D(C   6,C   4,C   3,H  25)    -61.4640         0.011350   
    167. D(H  26,C   4,C   3,H  25)    179.9086         0.011350   
    168. D(H  26,C   4,C   3,C   5)    -61.0342         0.011350   
    169. D(H  26,C   4,C   3,N   2)     62.2058         0.011350   
    170. D(H  27,C   4,C   3,H  25)     58.9925         0.011350   
    171. D(C   6,C   4,C   3,C   5)     57.5932         0.011350   
    172. D(H  29,C   5,C   3,N   2)    -62.5534         0.011351   
    173. D(H  28,C   5,C   3,H  25)    -59.1147         0.011351   
    174. D(H  28,C   5,C   3,C   4)   -178.2645         0.011351   
    175. D(C   7,C   5,C   3,H  25)     61.1468         0.011351   
    176. D(H  29,C   5,C   3,H  25)    179.8321         0.011351   
    177. D(C   7,C   5,C   3,C   4)    -58.0029         0.011351   
    178. D(H  29,C   5,C   3,C   4)     60.6824         0.011351   
    179. D(C   7,C   5,C   3,N   2)    178.7612         0.011351   
    180. D(H  28,C   5,C   3,N   2)     58.4997         0.011351   
    181. D(H  31,C   6,N   1,C   8)    -41.5477         0.017948   
    182. D(H  31,C   6,N   1,C   7)   -176.7936         0.017948   
    183. D(H  30,C   6,N   1,C   8)     78.6410         0.017948   
    184. D(H  30,C   6,N   1,C   7)    -56.6049         0.017948   
    185. D(C   4,C   6,N   1,C   8)   -160.4626         0.017948   
    186. D(N   1,C   6,C   4,C   3)    -59.7026         0.011049   
    187. D(C   4,C   6,N   1,C   7)     64.2915         0.017948   
    188. D(H  31,C   6,C   4,H  26)    -58.8622         0.011049   
    189. D(H  31,C   6,C   4,C   3)   -178.3310         0.011049   
    190. D(H  30,C   6,C   4,H  27)    -57.6651         0.011049   
    191. D(H  30,C   6,C   4,H  26)   -177.1718         0.011049   
    192. D(H  30,C   6,C   4,C   3)     63.3594         0.011049   
    193. D(N   1,C   6,C   4,H  27)    179.2728         0.011049   
    194. D(H  31,C   6,C   4,H  27)     60.6445         0.011049   
    195. D(N   1,C   6,C   4,H  26)     59.7662         0.011049   
    196. D(H  33,C   7,C   5,H  29)    177.4987         0.011013   
    197. D(H  33,C   7,C   5,H  28)     57.8793         0.011013   
    198. D(H  33,C   7,C   5,C   3)    -63.0169         0.011013   
    199. D(H  32,C   7,C   5,H  29)     59.6118         0.011013   
    200. D(H  32,C   7,C   5,H  28)    -60.0076         0.011013   
    201. D(H  32,C   7,C   5,C   3)    179.0962         0.011013   
    202. D(N   1,C   7,C   5,H  29)    -59.0477         0.011013   
    203. D(N   1,C   7,C   5,H  28)   -178.6671         0.011013   
    204. D(N   1,C   7,C   5,C   3)     60.4367         0.011013   
    205. D(H  33,C   7,N   1,C   8)    -78.1324         0.017846   
    206. D(H  33,C   7,N   1,C   6)     56.5843         0.017846   
    207. D(H  32,C   7,N   1,C   8)     41.7423         0.017846   
    208. D(H  32,C   7,N   1,C   6)    176.4591         0.017846   
    209. D(C   5,C   7,N   1,C   8)    160.6700         0.017846   
    210. D(C   5,C   7,N   1,C   6)    -64.6133         0.017846   
    211. D(H  35,C   8,N   1,C   7)    -47.6300         0.017478   
    212. D(H  35,C   8,N   1,C   6)    179.5225         0.017478   
    213. D(H  34,C   8,N   1,C   7)   -162.9025         0.017478   
    214. D(H  34,C   8,N   1,C   6)     64.2499         0.017478   
    215. D(C   9,C   8,N   1,C   7)     75.6930         0.017478   
    216. D(C   9,C   8,N   1,C   6)    -57.1545         0.017478   
    217. D(C  12,C   9,C   8,H  35)     60.2122         0.010170   
    218. D(C  12,C   9,C   8,H  34)    177.3796         0.010170   
    219. D(C  12,C   9,C   8,N   1)    -61.8806         0.010170   
    220. D(H  37,C   9,C   8,H  35)   -176.6735         0.010170   
    221. D(H  37,C   9,C   8,H  34)    -59.5061         0.010170   
    222. D(H  37,C   9,C   8,N   1)     61.2336         0.010170   
    223. D(H  36,C   9,C   8,H  35)    -60.2694         0.010170   
    224. D(H  36,C   9,C   8,H  34)     56.8980         0.010170   
    225. D(H  36,C   9,C   8,N   1)    177.6377         0.010170   
    226. D(C  15,C  10,N   2,C  11)    -90.0424         0.017367   
    227. D(C  15,C  10,N   2,C   3)     90.0545         0.017367   
    228. D(C  14,C  10,N   2,C  11)     90.3268         0.017367   
    229. D(C  14,C  10,N   2,C   3)    -89.5764         0.017367   
    230. D(C  13,C  11,N   2,C  10)     -0.0495         0.052244   
    231. D(C  13,C  11,N   2,C   3)    179.8489         0.052244   
    232. D(O   0,C  11,N   2,C  10)    179.9046         0.052244   
    233. D(O   0,C  11,N   2,C   3)     -0.1970         0.052244   
    234. D(C  13,C  11,O   0,H  53)     -0.1625         0.043305   
    235. D(N   2,C  11,O   0,H  53)    179.8832         0.043305   
    236. D(C  18,C  12,C   9,H  37)    171.8836         0.012708   
    237. D(C  18,C  12,C   9,H  36)     53.9577         0.012708   
    238. D(C  18,C  12,C   9,C   8)    -65.2341         0.012708   
    239. D(C  17,C  12,C   9,H  37)     -8.1988         0.012708   
    240. D(C  17,C  12,C   9,H  36)   -126.1247         0.012708   
    241. D(C  17,C  12,C   9,C   8)    114.6835         0.012708   
    242. D(H  39,C  13,C  11,N   2)    -56.8412         0.013174   
    243. D(H  39,C  13,C  11,O   0)    123.2055         0.013174   
    244. D(H  38,C  13,C  11,N   2)     57.8195         0.013174   
    245. D(H  38,C  13,C  11,O   0)   -122.1338         0.013174   
    246. D(C  16,C  13,C  11,N   2)   -179.5352         0.013174   
    247. D(C  16,C  13,C  11,O   0)      0.5115         0.013174   
    248. D(H  40,C  14,C  10,C  15)    179.5314         0.027461   
    249. D(H  40,C  14,C  10,N   2)     -0.8417         0.027461   
    250. D(C  19,C  14,C  10,C  15)     -0.7220         0.027461   
    251. D(C  19,C  14,C  10,N   2)    178.9049         0.027461   
    252. D(H  41,C  15,C  10,C  14)   -179.5566         0.027437   
    253. D(H  41,C  15,C  10,N   2)      0.8163         0.027437   
    254. D(C  20,C  15,C  10,C  14)      0.7328         0.027437   
    255. D(C  20,C  15,C  10,N   2)   -178.8943         0.027437   
    256. D(H  44,C  16,C  13,H  39)     58.0000         0.011429   
    257. D(H  44,C  16,C  13,C  11)    179.8065         0.011429   
    258. D(H  43,C  16,C  13,H  39)    176.0465         0.011429   
    259. D(H  43,C  16,C  13,H  38)     59.6196         0.011429   
    260. D(H  43,C  16,C  13,C  11)    -62.1470         0.011429   
    261. D(H  42,C  16,C  13,H  39)    -60.0507         0.011429   
    262. D(H  44,C  16,C  13,H  38)    -58.4269         0.011429   
    263. D(H  42,C  16,C  13,H  38)   -176.4776         0.011429   
    264. D(H  42,C  16,C  13,C  11)     61.7558         0.011429   
    265. D(H  45,C  17,C  12,C  18)   -178.5906         0.027135   
    266. D(H  45,C  17,C  12,C   9)      1.4903         0.027135   
    267. D(C  22,C  17,C  12,C  18)      0.8017         0.027135   
    268. D(C  22,C  17,C  12,C   9)   -179.1174         0.027135   
    269. D(H  46,C  18,C  12,C  17)    178.4131         0.026915   
    270. D(H  46,C  18,C  12,C   9)     -1.6674         0.026915   
    271. D(C  23,C  18,C  12,C  17)     -0.9585         0.026915   
    272. D(C  23,C  18,C  12,C   9)    178.9611         0.026915   
    273. D(H  47,C  19,C  14,H  40)      0.1339         0.028164   
    274. D(H  47,C  19,C  14,C  10)   -179.6121         0.028164   
    275. D(C  21,C  19,C  14,H  40)    179.9724         0.028164   
    276. D(C  21,C  19,C  14,C  10)      0.2264         0.028164   
    277. D(H  48,C  20,C  15,H  41)     -0.1177         0.028189   
    278. D(H  48,C  20,C  15,C  10)    179.5923         0.028189   
    279. D(C  21,C  20,C  15,H  41)   -179.9578         0.028189   
    280. D(C  21,C  20,C  15,C  10)     -0.2479         0.028189   
    281. D(H  49,C  21,C  19,C  14)   -179.7748         0.028089   
    282. D(C  20,C  21,C  19,H  47)   -179.9113         0.028089   
    283. D(C  20,C  21,C  19,C  14)      0.2513         0.028089   
    284. D(H  49,C  21,C  20,H  48)     -0.0533         0.028076   
    285. D(H  49,C  21,C  20,C  15)    179.7857         0.028076   
    286. D(C  19,C  21,C  20,H  48)    179.9205         0.028076   
    287. D(C  19,C  21,C  20,C  15)     -0.2405         0.028076   
    288. D(H  49,C  21,C  19,H  47)      0.0625         0.028089   
    289. D(H  50,C  22,C  17,H  45)     -0.2239         0.028306   
    290. D(H  50,C  22,C  17,C  12)   -179.6161         0.028306   
    291. D(C  24,C  22,C  17,H  45)    179.3848         0.028306   
    292. D(C  24,C  22,C  17,C  12)     -0.0074         0.028306   
    293. D(H  51,C  23,C  18,H  46)      0.4538         0.028599   
    294. D(H  51,C  23,C  18,C  12)    179.8237         0.028599   
    295. D(C  24,C  23,C  18,H  46)   -179.0480         0.028599   
    296. D(C  24,C  23,C  18,C  12)      0.3219         0.028599   
    297. D(H  52,C  24,C  23,H  51)      0.2397         0.028123   
    298. D(H  52,C  24,C  23,C  18)    179.7406         0.028123   
    299. D(C  22,C  24,C  23,H  51)   -179.0126         0.028123   
    300. D(C  22,C  24,C  23,C  18)      0.4884         0.028123   
    301. D(H  52,C  24,C  22,H  50)     -0.2890         0.028316   
    302. D(H  52,C  24,C  22,C  17)   -179.8966         0.028316   
    303. D(C  23,C  24,C  22,H  50)    178.9636         0.028316   
    304. D(C  23,C  24,C  22,C  17)     -0.6440         0.028316   
    -----------------------------------------------------------------

Number of atoms                         .... 54
Number of degrees of freedom            .... 304

         *************************************************************
         *                GEOMETRY OPTIMIZATION CYCLE   1            *
         *************************************************************
---------------------------------
CARTESIAN COORDINATES (ANGSTROEM)
---------------------------------
  O      2.418809    1.927607    1.160977
  N     -1.892972   -0.425662   -1.085980
  N      2.163192    0.053308   -0.044035
  C      0.716023    0.284829   -0.173660
  C      0.306176    0.426042   -1.638205
  C     -0.086075   -0.847083    0.465224
  C     -1.201841    0.684728   -1.698431
  C     -1.576432   -0.524620    0.320416
  C     -3.290004   -0.557591   -1.442218
  C     -4.208760    0.650311   -1.161712
  C      2.708770   -1.122195   -0.666888
  C      2.941311    0.864251    0.605333
  C     -4.299299    1.006389    0.294432
  C      4.408754    0.591825    0.717477
  C      2.770728   -2.311853    0.045473
  C      3.161133   -1.057128   -1.977623
  C      5.172586    1.639053    1.523486
  C     -3.807754    2.217287    0.766598
  C     -4.878401    0.124448    1.200275
  C      3.276261   -3.445820   -0.567865
  C      3.664440   -2.197414   -2.580726
  C      3.719944   -3.390307   -1.878831
  C     -3.876787    2.533928    2.112263
  C     -4.945852    0.436664    2.545703
  C     -4.440422    1.640812    3.006903
  H      0.495649    1.217953    0.351980
  H      0.522043   -0.497592   -2.175135
  H      0.840914    1.252229   -2.109625
  H      0.166130   -0.948959    1.521745
  H      0.119874   -1.785551   -0.049451
  H     -1.420543    1.645011   -1.200308
  H     -1.511851    0.757920   -2.742010
  H     -2.164029   -1.332373    0.758138
  H     -1.802038    0.400150    0.876392
  H     -3.324610   -0.769051   -2.515671
  H     -3.672539   -1.434558   -0.916496
  H     -5.202736    0.386773   -1.529916
  H     -3.860945    1.512320   -1.733711
  H      4.823894    0.522945   -0.292233
  H      4.541929   -0.395963    1.167936
  H      2.423802   -2.351570    1.066434
  H      3.115662   -0.126203   -2.521393
  H      4.823460    1.688734    2.554150
  H      5.117153    2.624072    1.061581
  H      6.222424    1.361507    1.555904
  H     -3.374620    2.925290    0.072242
  H     -5.288592   -0.810052    0.845204
  H      3.319591   -4.372764   -0.018528
  H      4.010317   -2.150840   -3.601052
  H      4.109421   -4.276656   -2.353471
  H     -3.495372    3.482541    2.461422
  H     -5.401226   -0.257522    3.236160
  H     -4.496541    1.886929    4.056444
  H      3.084923    2.466682    1.623376

----------------------------
CARTESIAN COORDINATES (A.U.)
----------------------------
  NO LB      ZA    FRAG     MASS         X           Y           Z
   0 O     8.0000    0    15.999    4.570887    3.642649    2.193929
   1 N     7.0000    0    14.007   -3.577199   -0.804384   -2.052205
   2 N     7.0000    0    14.007    4.087841    0.100737   -0.083213
   3 C     6.0000    0    12.011    1.353087    0.538250   -0.328170
   4 C     6.0000    0    12.011    0.578589    0.805102   -3.095758
   5 C     6.0000    0    12.011   -0.162659   -1.600754    0.879146
   6 C     6.0000    0    12.011   -2.271151    1.293948   -3.209570
   7 C     6.0000    0    12.011   -2.979024   -0.991388    0.605498
   8 C     6.0000    0    12.011   -6.217207   -1.053694   -2.725398
   9 C     6.0000    0    12.011   -7.953404    1.228910   -2.195318
  10 C     6.0000    0    12.011    5.118834   -2.120641   -1.260236
  11 C     6.0000    0    12.011    5.558272    1.633197    1.143914
  12 C     6.0000    0    12.011   -8.124498    1.901799    0.556397
  13 C     6.0000    0    12.011    8.331337    1.118387    1.355836
  14 C     6.0000    0    12.011    5.235918   -4.368770    0.085931
  15 C     6.0000    0    12.011    5.973676   -1.997682   -3.737165
  16 C     6.0000    0    12.011    9.774770    3.097361    2.878972
  17 C     6.0000    0    12.011   -7.195611    4.190065    1.448660
  18 C     6.0000    0    12.011   -9.218841    0.235172    2.268191
  19 C     6.0000    0    12.011    6.191236   -6.511657   -1.073109
  20 C     6.0000    0    12.011    6.924787   -4.152510   -4.876866
  21 C     6.0000    0    12.011    7.029676   -6.406751   -3.550476
  22 C     6.0000    0    12.011   -7.326067    4.788430    3.991598
  23 C     6.0000    0    12.011   -9.346305    0.825175    4.810681
  24 C     6.0000    0    12.011   -8.391181    3.100686    5.682223
  25 H     1.0000    0     1.008    0.936640    2.301598    0.665146
  26 H     1.0000    0     1.008    0.986519   -0.940313   -4.110410
  27 H     1.0000    0     1.008    1.589098    2.366369   -3.986614
  28 H     1.0000    0     1.008    0.313940   -1.793272    2.875682
  29 H     1.0000    0     1.008    0.226529   -3.374202   -0.093449
  30 H     1.0000    0     1.008   -2.684437    3.108620   -2.268254
  31 H     1.0000    0     1.008   -2.856984    1.432262   -5.181648
  32 H     1.0000    0     1.008   -4.089422   -2.517820    1.432673
  33 H     1.0000    0     1.008   -3.405358    0.756174    1.656141
  34 H     1.0000    0     1.008   -6.282602   -1.453296   -4.753929
  35 H     1.0000    0     1.008   -6.940093   -2.710921   -1.731926
  36 H     1.0000    0     1.008   -9.831746    0.730895   -2.891123
  37 H     1.0000    0     1.008   -7.296128    2.857870   -3.276238
  38 H     1.0000    0     1.008    9.115839    0.988223   -0.552240
  39 H     1.0000    0     1.008    8.583002   -0.748261    2.207080
  40 H     1.0000    0     1.008    4.580322   -4.443824    2.015268
  41 H     1.0000    0     1.008    5.887748   -0.238489   -4.764743
  42 H     1.0000    0     1.008    9.115019    3.191245    4.826643
  43 H     1.0000    0     1.008    9.670017    4.958778    2.006098
  44 H     1.0000    0     1.008   11.758677    2.572875    2.940233
  45 H     1.0000    0     1.008   -6.377108    5.527996    0.136517
  46 H     1.0000    0     1.008   -9.993991   -1.530777    1.597204
  47 H     1.0000    0     1.008    6.273118   -8.263327   -0.035014
  48 H     1.0000    0     1.008    7.578401   -4.064499   -6.805003
  49 H     1.0000    0     1.008    7.765679   -8.081709   -4.447415
  50 H     1.0000    0     1.008   -6.605296    6.581049    4.651414
  51 H     1.0000    0     1.008  -10.206837   -0.486645    6.115456
  52 H     1.0000    0     1.008   -8.497232    3.565779    7.665569
  53 H     1.0000    0     1.008    5.829659    4.661353    3.067737

--------------------------------
INTERNAL COORDINATES (ANGSTROEM)
--------------------------------
 O      0   0   0     0.000000000000     0.00000000     0.00000000
 N      1   0   0     5.401680295591     0.00000000     0.00000000
 N      1   2   0     2.242853233259    47.27116213     0.00000000
 C      3   1   2     1.471293327330    91.60072855     0.21277371
 C      4   3   1     1.527352508115   111.28251562   119.47822408
 C      4   3   1     1.527337288044   111.28933121   241.50916715
 C      2   1   3     1.444203393612    57.27889796   260.45892542
 C      2   1   3     1.444970667536    56.64008509   101.04475959
 C      2   1   3     1.447759962262   155.82730548   181.44456599
 C      9   2   1     1.543315906570   117.28449693     8.85115839
 C      3   1   2     1.437848532318   150.77300176   180.21004769
 C      3   1   2     1.297989142026    30.77143615   180.37919076
 C     10   9   2     1.501780686545   113.43418331   298.11935028
 C     12   3   1     1.496723499106   120.76513613   180.04588683
 C     11   3   1     1.388014635554   119.69136102    90.42669031
 C     11   3   1     1.388124764651   119.62785697   270.05754385
 C     14  12   3     1.526360216541   113.91139644   180.46480774
 C     13  10   9     1.389543381324   120.98188324   114.68345142
 C     13  10   9     1.390585855425   120.42070573   294.76585679
 C     15  11   3     1.384784434987   119.39558908   178.90489345
 C     16  11   3     1.384667213812   119.41468401   181.10566383
 C     20  15  11     1.385124182411   120.21966011     0.22642375
 C     18  13  10     1.384139403786   120.80139644   180.88264846
 C     19  13  10     1.382825288502   120.72454394   178.96106856
 C     23  18  13     1.384095979329   120.07281397     0.00000000
 H      4   3   1     1.093426621406   106.86848787     0.40543436
 H      5   4   3     1.089950735456   109.92982045    62.20575553
 H      5   4   3     1.091222710870   110.65565676   301.28969230
 H      6   4   3     1.090973887999   110.66419957    58.49966542
 H      6   4   3     1.089967070928   109.95887743   297.44655674
 H      7   2   1     1.103675684111   112.50347493   285.04294612
 H      7   2   1     1.091109358634   108.73604627   164.85424053
 H      8   2   1     1.090566866874   108.86559155   194.94961111
 H      8   2   1     1.102364099123   112.86744801    75.07488690
 H      9   2   1     1.094629445601   106.82273272   130.25562055
 H      9   2   1     1.091690352104   107.02780738   245.52813981
 H     10   9   2     1.092251984964   106.95598686   177.63772820
 H     10   9   2     1.091428756334   109.46189894    61.23357129
 H     14  12   3     1.093892582729   108.32362383    57.81948681
 H     14  12   3     1.093788412402   108.33707011   303.15880858
 H     15  11   3     1.079025900444   120.18552663   359.15834373
 H     16  11   3     1.079062179941   120.16822956     0.81630746
 H     17  14  12     1.089322569595   111.74825212    61.75578927
 H     17  14  12     1.089354131092   111.77804558   297.85298608
 H     17  14  12     1.086389991641   108.90907971   179.80650558
 H     18  13  10     1.082128746582   119.58468392     1.49029071
 H     19  13  10     1.080565932531   119.50671819   358.33260073
 H     20  15  11     1.078365765505   119.53358459   180.38792576
 H     21  16  11     1.078362328208   119.54692715   179.59225553
 H     22  20  15     1.078234482955   119.95977150   180.22515979
 H     23  18  13     1.080396755184   119.83122196   180.38394337
 H     24  19  13     1.079810325000   119.83820439   179.82367712
 H     25  23  18     1.079472164443   120.16554680   180.10342311
 H      1   2   3     0.973715733647   169.99507268   181.94423400

---------------------------
INTERNAL COORDINATES (A.U.)
---------------------------
 O      0   0   0     0.000000000000     0.00000000     0.00000000
 N      1   0   0    10.207696421666     0.00000000     0.00000000
 N      1   2   0     4.238378369440    47.27116213     0.00000000
 C      3   1   2     2.780341451319    91.60072855     0.21277371
 C      4   3   1     2.886277950296   111.28251562   119.47822408
 C      4   3   1     2.886249188529   111.28933121   241.50916715
 C      2   1   3     2.729148895606    57.27889796   260.45892542
 C      2   1   3     2.730598833192    56.64008509   101.04475959
 C      2   1   3     2.735869836331   155.82730548   181.44456599
 C      9   2   1     2.916444401541   117.28449693     8.85115839
 C      3   1   2     2.717139948142   150.77300176   180.21004769
 C      3   1   2     2.452844003233    30.77143615   180.37919076
 C     10   9   2     2.837954210783   113.43418331   298.11935028
 C     12   3   1     2.828397511514   120.76513613   180.04588683
 C     11   3   1     2.622967531071   119.69136102    90.42669031
 C     11   3   1     2.623175644905   119.62785697   270.05754385
 C     14  12   3     2.884402790975   113.91139644   180.46480774
 C     13  10   9     2.625856441906   120.98188324   114.68345142
 C     13  10   9     2.627826432458   120.42070573   294.76585679
 C     15  11   3     2.616863336643   119.39558908   178.90489345
 C     16  11   3     2.616641820724   119.41468401   181.10566383
 C     20  15  11     2.617505366229   120.21966011     0.22642375
 C     18  13  10     2.615644404324   120.80139644   180.88264846
 C     19  13  10     2.613161086330   120.72454394   178.96106856
 C     23  18  13     2.615562343993   120.07281397     0.00000000
 H      4   3   1     2.066276861996   106.86848787     0.40543436
 H      5   4   3     2.059708389478   109.92982045    62.20575553
 H      5   4   3     2.062112074660   110.65565676   301.28969230
 H      6   4   3     2.061641867577   110.66419957    58.49966542
 H      6   4   3     2.059739259046   109.95887743   297.44655674
 H      7   2   1     2.085644783637   112.50347493   285.04294612
 H      7   2   1     2.061897869976   108.73604627   164.85424053
 H      8   2   1     2.060872709121   108.86559155   194.94961111
 H      8   2   1     2.083166247209   112.86744801    75.07488690
 H      9   2   1     2.068549870311   106.82273272   130.25562055
 H      9   2   1     2.062995788521   107.02780738   245.52813981
 H     10   9   2     2.064057120815   106.95598686   177.63772820
 H     10   9   2     2.062501444157   109.46189894    61.23357129
 H     14  12   3     2.067157401286   108.32362383    57.81948681
 H     14  12   3     2.066960547897   108.33707011   303.15880858
 H     15  11   3     2.039063443248   120.18552663   359.15834373
 H     16  11   3     2.039132001560   120.16822956     0.81630746
 H     17  14  12     2.058521328033   111.74825212    61.75578927
 H     17  14  12     2.058580970619   111.77804558   297.85298608
 H     17  14  12     2.052979558834   108.90907971   179.80650558
 H     18  13  10     2.044926972684   119.58468392     1.49029071
 H     19  13  10     2.041973682129   119.50671819   358.33260073
 H     20  15  11     2.037815969001   119.53358459   180.38792576
 H     21  16  11     2.037809473450   119.54692715   179.59225553
 H     22  20  15     2.037567880936   119.95977150   180.22515979
 H     23  18  13     2.041653983275   119.83122196   180.38394337
 H     24  19  13     2.040545790830   119.83820439   179.82367712
 H     25  23  18     2.039906759989   120.16554680   180.10342311
 H      1   2   3     1.840056068884   169.99507268   181.94423400

---------------------
BASIS SET INFORMATION
---------------------
There are 4 groups of distinct atoms

 Group   1 Type O   : 11s6p2d1f contracted to 5s3p2d1f pattern {62111/411/11/1}
 Group   2 Type N   : 11s6p2d1f contracted to 5s3p2d1f pattern {62111/411/11/1}
 Group   3 Type C   : 11s6p2d1f contracted to 5s3p2d1f pattern {62111/411/11/1}
 Group   4 Type H   : 5s1p contracted to 3s1p pattern {311/1}

Atom   0O    basis set group =>   1
Atom   1N    basis set group =>   2
Atom   2N    basis set group =>   2
Atom   3C    basis set group =>   3
Atom   4C    basis set group =>   3
Atom   5C    basis set group =>   3
Atom   6C    basis set group =>   3
Atom   7C    basis set group =>   3
Atom   8C    basis set group =>   3
Atom   9C    basis set group =>   3
Atom  10C    basis set group =>   3
Atom  11C    basis set group =>   3
Atom  12C    basis set group =>   3
Atom  13C    basis set group =>   3
Atom  14C    basis set group =>   3
Atom  15C    basis set group =>   3
Atom  16C    basis set group =>   3
Atom  17C    basis set group =>   3
Atom  18C    basis set group =>   3
Atom  19C    basis set group =>   3
Atom  20C    basis set group =>   3
Atom  21C    basis set group =>   3
Atom  22C    basis set group =>   3
Atom  23C    basis set group =>   3
Atom  24C    basis set group =>   3
Atom  25H    basis set group =>   4
Atom  26H    basis set group =>   4
Atom  27H    basis set group =>   4
Atom  28H    basis set group =>   4
Atom  29H    basis set group =>   4
Atom  30H    basis set group =>   4
Atom  31H    basis set group =>   4
Atom  32H    basis set group =>   4
Atom  33H    basis set group =>   4
Atom  34H    basis set group =>   4
Atom  35H    basis set group =>   4
Atom  36H    basis set group =>   4
Atom  37H    basis set group =>   4
Atom  38H    basis set group =>   4
Atom  39H    basis set group =>   4
Atom  40H    basis set group =>   4
Atom  41H    basis set group =>   4
Atom  42H    basis set group =>   4
Atom  43H    basis set group =>   4
Atom  44H    basis set group =>   4
Atom  45H    basis set group =>   4
Atom  46H    basis set group =>   4
Atom  47H    basis set group =>   4
Atom  48H    basis set group =>   4
Atom  49H    basis set group =>   4
Atom  50H    basis set group =>   4
Atom  51H    basis set group =>   4
Atom  52H    basis set group =>   4
Atom  53H    basis set group =>   4
---------------------------------
AUXILIARY/J BASIS SET INFORMATION
---------------------------------
There are 4 groups of distinct atoms

 Group   1 Type O   : 12s5p4d2f1g contracted to 6s4p3d1f1g pattern {711111/2111/211/2/1}
 Group   2 Type N   : 12s5p4d2f1g contracted to 6s4p3d1f1g pattern {711111/2111/211/2/1}
 Group   3 Type C   : 12s5p4d2f1g contracted to 6s4p3d1f1g pattern {711111/2111/211/2/1}
 Group   4 Type H   : 5s2p1d contracted to 3s1p1d pattern {311/2/1}

Atom   0O    basis set group =>   1
Atom   1N    basis set group =>   2
Atom   2N    basis set group =>   2
Atom   3C    basis set group =>   3
Atom   4C    basis set group =>   3
Atom   5C    basis set group =>   3
Atom   6C    basis set group =>   3
Atom   7C    basis set group =>   3
Atom   8C    basis set group =>   3
Atom   9C    basis set group =>   3
Atom  10C    basis set group =>   3
Atom  11C    basis set group =>   3
Atom  12C    basis set group =>   3
Atom  13C    basis set group =>   3
Atom  14C    basis set group =>   3
Atom  15C    basis set group =>   3
Atom  16C    basis set group =>   3
Atom  17C    basis set group =>   3
Atom  18C    basis set group =>   3
Atom  19C    basis set group =>   3
Atom  20C    basis set group =>   3
Atom  21C    basis set group =>   3
Atom  22C    basis set group =>   3
Atom  23C    basis set group =>   3
Atom  24C    basis set group =>   3
Atom  25H    basis set group =>   4
Atom  26H    basis set group =>   4
Atom  27H    basis set group =>   4
Atom  28H    basis set group =>   4
Atom  29H    basis set group =>   4
Atom  30H    basis set group =>   4
Atom  31H    basis set group =>   4
Atom  32H    basis set group =>   4
Atom  33H    basis set group =>   4
Atom  34H    basis set group =>   4
Atom  35H    basis set group =>   4
Atom  36H    basis set group =>   4
Atom  37H    basis set group =>   4
Atom  38H    basis set group =>   4
Atom  39H    basis set group =>   4
Atom  40H    basis set group =>   4
Atom  41H    basis set group =>   4
Atom  42H    basis set group =>   4
Atom  43H    basis set group =>   4
Atom  44H    basis set group =>   4
Atom  45H    basis set group =>   4
Atom  46H    basis set group =>   4
Atom  47H    basis set group =>   4
Atom  48H    basis set group =>   4
Atom  49H    basis set group =>   4
Atom  50H    basis set group =>   4
Atom  51H    basis set group =>   4
Atom  52H    basis set group =>   4
Atom  53H    basis set group =>   4


           ************************************************************
           *        Program running with 8 parallel MPI-processes     *
           *              working on a common directory               *
           ************************************************************
------------------------------------------------------------------------------
                           ORCA GTO INTEGRAL CALCULATION
                           -- RI-GTO INTEGRALS CHOSEN --
------------------------------------------------------------------------------
------------------------------------------------------------------------------
                   ___                                                        
                  /   \      - P O W E R E D   B Y -                         
                 /     \                                                     
                 |  |  |   _    _      __       _____    __    __             
                 |  |  |  | |  | |    /  \     |  _  \  |  |  /  |          
                  \  \/   | |  | |   /    \    | | | |  |  | /  /          
                 / \  \   | |__| |  /  /\  \   | |_| |  |  |/  /          
                |  |  |   |  __  | /  /__\  \  |    /   |      \           
                |  |  |   | |  | | |   __   |  |    \   |  |\   \          
                \     /   | |  | | |  |  |  |  | |\  \  |  | \   \       
                 \___/    |_|  |_| |__|  |__|  |_| \__\ |__|  \__/        
                                                                              
                      - O R C A' S   B I G   F R I E N D -                    
                                      &                                       
                       - I N T E G R A L  F E E D E R -                       
                                                                              
 v1 FN, 2020, v2 2021                                                         
------------------------------------------------------------------------------


Reading SHARK input file Fentanyl_OProt_12.SHARKINP.tmp ... ok
----------------------
SHARK INTEGRAL PACKAGE
----------------------

Number of atoms                             ...     54
Number of basis functions                   ...    949
Number of shells                            ...    391
Maximum angular momentum                    ...      3
Integral batch strategy                     ... SHARK/LIBINT Hybrid
RI-J (if used) integral strategy            ... SPLIT-RIJ (Revised 2003 algorithm where possible)
Printlevel                                  ...      1
Contraction scheme used                     ... SEGMENTED contraction
Coulomb Range Separation                    ... NOT USED
Exchange Range Separation                   ... Long Range
   Mu parameter                             ...  0.300000
   Scaling (regular/separated)              ...  0.167000  0.833000
Finite Nucleus Model                        ... NOT USED
Auxiliary Coulomb fitting basis             ... AVAILABLE
   # of basis functions in Aux-J            ...   1544
   # of shells in Aux-J                     ...    520
   Maximum angular momentum in Aux-J        ...      4
Auxiliary J/K fitting basis                 ... NOT available
Auxiliary Correlation fitting basis         ... NOT available
Auxiliary 'external' fitting basis          ... NOT available
Integral threshold                          ...     2.500000e-11
Primitive cut-off                           ...     2.500000e-12
Primitive pair pre-selection threshold      ...     2.500000e-12

Calculating pre-screening integrals         ... done (  0.1 sec) Dimension = 391
Organizing shell pair data                  ... done (  0.5 sec)
Shell pair information
Total number of shell pairs                 ...     76636
Shell pairs after pre-screening             ...     50579
Total number of primitive shell pairs       ...    228112
Primitive shell pairs kept                  ...     99522
          la=0 lb=0:  14633 shell pairs
          la=1 lb=0:  15122 shell pairs
          la=1 lb=1:   3941 shell pairs
          la=2 lb=0:   6812 shell pairs
          la=2 lb=1:   3510 shell pairs
          la=2 lb=2:    798 shell pairs
          la=3 lb=0:   3181 shell pairs
          la=3 lb=1:   1668 shell pairs
          la=3 lb=2:    725 shell pairs
          la=3 lb=3:    189 shell pairs

Calculating one electron integrals          ... done (  0.1 sec)
Calculating RI/J V-Matrix + Cholesky decomp.... done (  0.3 sec)
Calculating Nuclear repulsion               ... done (  0.0 sec) ENN=   2212.487427691052 Eh

SHARK setup successfully completed in   2.1 seconds

Maximum memory used throughout the entire GTOINT-calculation: 74.8 MB
[1703434110.326580] [gra308:4295 :0]          mpool.c:42   UCX  WARN  object 0xa711e80 was not returned to mpool ucp_requests
[1703434110.326613] [gra308:4295 :0]          mpool.c:42   UCX  WARN  object 0xa712040 was not returned to mpool ucp_requests
[1703434110.326626] [gra308:4295 :0]          mpool.c:42   UCX  WARN  object 0xa712200 was not returned to mpool ucp_requests
[1703434110.326637] [gra308:4295 :0]          mpool.c:42   UCX  WARN  object 0xa7123c0 was not returned to mpool ucp_requests
[1703434110.326646] [gra308:4295 :0]          mpool.c:42   UCX  WARN  object 0xa712580 was not returned to mpool ucp_requests
[1703434110.326656] [gra308:4295 :0]          mpool.c:42   UCX  WARN  object 0xa712740 was not returned to mpool ucp_requests
[1703434110.326673] [gra308:4295 :0]          mpool.c:42   UCX  WARN  object 0xa712900 was not returned to mpool ucp_requests
[1703434110.326683] [gra308:4295 :0]          mpool.c:42   UCX  WARN  object 0xa712ac0 was not returned to mpool ucp_requests
[1703434110.326693] [gra308:4295 :0]          mpool.c:42   UCX  WARN  object 0xa712c80 was not returned to mpool ucp_requests
[1703434110.326704] [gra308:4295 :0]          mpool.c:42   UCX  WARN  object 0xa712e40 was not returned to mpool ucp_requests
[1703434110.326713] [gra308:4295 :0]          mpool.c:42   UCX  WARN  object 0xa713000 was not returned to mpool ucp_requests
[1703434110.326722] [gra308:4295 :0]          mpool.c:42   UCX  WARN  object 0xa7131c0 was not returned to mpool ucp_requests
[1703434110.327970] [gra308:4285 :0]          mpool.c:42   UCX  WARN  object 0xa79e040 was not returned to mpool ucp_requests
[1703434110.328004] [gra308:4285 :0]          mpool.c:42   UCX  WARN  object 0xa79e200 was not returned to mpool ucp_requests
[1703434110.328016] [gra308:4285 :0]          mpool.c:42   UCX  WARN  object 0xa79e3c0 was not returned to mpool ucp_requests
[1703434110.328028] [gra308:4285 :0]          mpool.c:42   UCX  WARN  object 0xa79e580 was not returned to mpool ucp_requests
[1703434110.328041] [gra308:4285 :0]          mpool.c:42   UCX  WARN  object 0xa79e740 was not returned to mpool ucp_requests
[1703434110.328058] [gra308:4285 :0]          mpool.c:42   UCX  WARN  object 0xa79e900 was not returned to mpool ucp_requests
[1703434110.328068] [gra308:4285 :0]          mpool.c:42   UCX  WARN  object 0xa79eac0 was not returned to mpool ucp_requests
[1703434110.328078] [gra308:4285 :0]          mpool.c:42   UCX  WARN  object 0xa79ec80 was not returned to mpool ucp_requests
[1703434110.328087] [gra308:4285 :0]          mpool.c:42   UCX  WARN  object 0xa79ee40 was not returned to mpool ucp_requests
[1703434110.328096] [gra308:4285 :0]          mpool.c:42   UCX  WARN  object 0xa79f000 was not returned to mpool ucp_requests
[1703434110.328658] [gra308:4287 :0]          mpool.c:42   UCX  WARN  object 0xa7e7d40 was not returned to mpool ucp_requests
[1703434110.328654] [gra308:4291 :0]          mpool.c:42   UCX  WARN  object 0xb5c1e80 was not returned to mpool ucp_requests
[1703434110.328700] [gra308:4291 :0]          mpool.c:42   UCX  WARN  object 0xb5c2040 was not returned to mpool ucp_requests
[1703434110.328713] [gra308:4291 :0]          mpool.c:42   UCX  WARN  object 0xb5c2200 was not returned to mpool ucp_requests
[1703434110.328724] [gra308:4291 :0]          mpool.c:42   UCX  WARN  object 0xb5c23c0 was not returned to mpool ucp_requests
[1703434110.328736] [gra308:4291 :0]          mpool.c:42   UCX  WARN  object 0xb5c2580 was not returned to mpool ucp_requests
[1703434110.328756] [gra308:4291 :0]          mpool.c:42   UCX  WARN  object 0xb5c2740 was not returned to mpool ucp_requests
[1703434110.328767] [gra308:4291 :0]          mpool.c:42   UCX  WARN  object 0xb5c2900 was not returned to mpool ucp_requests
[1703434110.328777] [gra308:4291 :0]          mpool.c:42   UCX  WARN  object 0xb5c2ac0 was not returned to mpool ucp_requests
[1703434110.328787] [gra308:4291 :0]          mpool.c:42   UCX  WARN  object 0xb5c2c80 was not returned to mpool ucp_requests
[1703434110.328797] [gra308:4291 :0]          mpool.c:42   UCX  WARN  object 0xb5c2e40 was not returned to mpool ucp_requests
[1703434110.328807] [gra308:4291 :0]          mpool.c:42   UCX  WARN  object 0xb5c3000 was not returned to mpool ucp_requests
[1703434110.328818] [gra308:4291 :0]          mpool.c:42   UCX  WARN  object 0xb5c31c0 was not returned to mpool ucp_requests
[1703434110.328903] [gra308:4287 :0]          mpool.c:42   UCX  WARN  object 0xa7e7f00 was not returned to mpool ucp_requests
[1703434110.329015] [gra308:4287 :0]          mpool.c:42   UCX  WARN  object 0xa7e80c0 was not returned to mpool ucp_requests
[1703434110.329125] [gra308:4287 :0]          mpool.c:42   UCX  WARN  object 0xa7e8280 was not returned to mpool ucp_requests
[1703434110.329233] [gra308:4287 :0]          mpool.c:42   UCX  WARN  object 0xa7e8440 was not returned to mpool ucp_requests
[1703434110.329341] [gra308:4287 :0]          mpool.c:42   UCX  WARN  object 0xa7e8600 was not returned to mpool ucp_requests
[1703434110.329449] [gra308:4287 :0]          mpool.c:42   UCX  WARN  object 0xa7e87c0 was not returned to mpool ucp_requests
[1703434110.329557] [gra308:4287 :0]          mpool.c:42   UCX  WARN  object 0xa7e8980 was not returned to mpool ucp_requests
[1703434110.329685] [gra308:4287 :0]          mpool.c:42   UCX  WARN  object 0xa7e8b40 was not returned to mpool ucp_requests
[1703434110.329813] [gra308:4287 :0]          mpool.c:42   UCX  WARN  object 0xa7e8d00 was not returned to mpool ucp_requests
[1703434110.329886] [gra308:4289 :0]          mpool.c:42   UCX  WARN  object 0xace4d40 was not returned to mpool ucp_requests
[1703434110.329923] [gra308:4289 :0]          mpool.c:42   UCX  WARN  object 0xace4f00 was not returned to mpool ucp_requests
[1703434110.329936] [gra308:4289 :0]          mpool.c:42   UCX  WARN  object 0xace50c0 was not returned to mpool ucp_requests
[1703434110.329948] [gra308:4289 :0]          mpool.c:42   UCX  WARN  object 0xace5280 was not returned to mpool ucp_requests
[1703434110.329961] [gra308:4289 :0]          mpool.c:42   UCX  WARN  object 0xace5440 was not returned to mpool ucp_requests
[1703434110.329971] [gra308:4289 :0]          mpool.c:42   UCX  WARN  object 0xace5600 was not returned to mpool ucp_requests
[1703434110.329980] [gra308:4289 :0]          mpool.c:42   UCX  WARN  object 0xace57c0 was not returned to mpool ucp_requests
[1703434110.329990] [gra308:4289 :0]          mpool.c:42   UCX  WARN  object 0xace5980 was not returned to mpool ucp_requests
[1703434110.329999] [gra308:4289 :0]          mpool.c:42   UCX  WARN  object 0xace5b40 was not returned to mpool ucp_requests
[1703434110.330018] [gra308:4289 :0]          mpool.c:42   UCX  WARN  object 0xace5d00 was not returned to mpool ucp_requests
[1703434110.330030] [gra308:4289 :0]          mpool.c:42   UCX  WARN  object 0xace5ec0 was not returned to mpool ucp_requests
[1703434110.330046] [gra308:4289 :0]          mpool.c:42   UCX  WARN  object 0xace6080 was not returned to mpool ucp_requests
[1703434110.330117] [gra308:4287 :0]          mpool.c:42   UCX  WARN  object 0xa7e8ec0 was not returned to mpool ucp_requests
[1703434110.330226] [gra308:4287 :0]          mpool.c:42   UCX  WARN  object 0xa7e9080 was not returned to mpool ucp_requests
[1703434110.332459] [gra308:4297 :0]          mpool.c:42   UCX  WARN  object 0xbdb4e80 was not returned to mpool ucp_requests
[1703434110.332493] [gra308:4297 :0]          mpool.c:42   UCX  WARN  object 0xbdb5040 was not returned to mpool ucp_requests
[1703434110.332506] [gra308:4297 :0]          mpool.c:42   UCX  WARN  object 0xbdb5200 was not returned to mpool ucp_requests
[1703434110.332528] [gra308:4297 :0]          mpool.c:42   UCX  WARN  object 0xbdb53c0 was not returned to mpool ucp_requests
[1703434110.332540] [gra308:4297 :0]          mpool.c:42   UCX  WARN  object 0xbdb5580 was not returned to mpool ucp_requests
[1703434110.332550] [gra308:4297 :0]          mpool.c:42   UCX  WARN  object 0xbdb5740 was not returned to mpool ucp_requests
[1703434110.332562] [gra308:4297 :0]          mpool.c:42   UCX  WARN  object 0xbdb5900 was not returned to mpool ucp_requests
[1703434110.332572] [gra308:4297 :0]          mpool.c:42   UCX  WARN  object 0xbdb5ac0 was not returned to mpool ucp_requests
[1703434110.332582] [gra308:4297 :0]          mpool.c:42   UCX  WARN  object 0xbdb5c80 was not returned to mpool ucp_requests
[1703434110.332592] [gra308:4297 :0]          mpool.c:42   UCX  WARN  object 0xbdb5e40 was not returned to mpool ucp_requests
[1703434110.332601] [gra308:4297 :0]          mpool.c:42   UCX  WARN  object 0xbdb6000 was not returned to mpool ucp_requests
[1703434110.332611] [gra308:4297 :0]          mpool.c:42   UCX  WARN  object 0xbdb61c0 was not returned to mpool ucp_requests
[1703434110.334823] [gra308:4293 :0]          mpool.c:42   UCX  WARN  object 0xa8f5e80 was not returned to mpool ucp_requests
[1703434110.334856] [gra308:4293 :0]          mpool.c:42   UCX  WARN  object 0xa8f6040 was not returned to mpool ucp_requests
[1703434110.334874] [gra308:4293 :0]          mpool.c:42   UCX  WARN  object 0xa8f6200 was not returned to mpool ucp_requests
[1703434110.334886] [gra308:4293 :0]          mpool.c:42   UCX  WARN  object 0xa8f63c0 was not returned to mpool ucp_requests
[1703434110.334901] [gra308:4293 :0]          mpool.c:42   UCX  WARN  object 0xa8f6580 was not returned to mpool ucp_requests
[1703434110.334911] [gra308:4293 :0]          mpool.c:42   UCX  WARN  object 0xa8f6740 was not returned to mpool ucp_requests
[1703434110.334925] [gra308:4293 :0]          mpool.c:42   UCX  WARN  object 0xa8f6900 was not returned to mpool ucp_requests
[1703434110.334935] [gra308:4293 :0]          mpool.c:42   UCX  WARN  object 0xa8f6ac0 was not returned to mpool ucp_requests
[1703434110.334945] [gra308:4293 :0]          mpool.c:42   UCX  WARN  object 0xa8f6c80 was not returned to mpool ucp_requests
[1703434110.334953] [gra308:4293 :0]          mpool.c:42   UCX  WARN  object 0xa8f6e40 was not returned to mpool ucp_requests
[1703434110.334962] [gra308:4293 :0]          mpool.c:42   UCX  WARN  object 0xa8f7000 was not returned to mpool ucp_requests
[1703434110.334971] [gra308:4293 :0]          mpool.c:42   UCX  WARN  object 0xa8f71c0 was not returned to mpool ucp_requests


           ************************************************************
           *        Program running with 8 parallel MPI-processes     *
           *              working on a common directory               *
           ************************************************************
-------------------------------------------------------------------------------
                                 ORCA SCF
-------------------------------------------------------------------------------

------------
SCF SETTINGS
------------
Hamiltonian:
 Density Functional     Method          .... DFT(GTOs)
 Exchange Functional    Exchange        .... WB97X-V
 Correlation Functional Correlation     .... WB97X-V
 Gradients option       PostSCFGGA      .... off
 Hybrid DFT is turned on
   Fraction HF Exchange ScalHFX         ....  0.167000
   Scaling of DF-GGA-X  ScalDFX         ....  0.000000
   Scaling of DF-GGA-C  ScalDFC         ....  1.000000
   Scaling of DF-LDA-C  ScalLDAC        ....  1.000000
   Perturbative correction              ....  0.000000
   Density functional embedding theory  .... OFF
 Long-range corrected/Screened/Range-Separated Hybrid DFT is turned on
   Amount of maximum screened exact exchange              ....  0.833000
   Range separation parameter mu (erf(mu*r12)/r12)        ....  0.300000
 RI-approximation to the Coulomb term is turned on
   Number of AuxJ basis functions       .... 1544
   RIJ-COSX (HFX calculated with COS-X)).... on


General Settings:
 Integral files         IntName         .... Fentanyl_OProt_12
 Hartree-Fock type      HFTyp           .... RHF
 Total Charge           Charge          ....    1
 Multiplicity           Mult            ....    1
 Number of Electrons    NEL             ....  182
 Basis Dimension        Dim             ....  949
 Nuclear Repulsion      ENuc            ....   2212.4874276911 Eh

Convergence Acceleration:
 DIIS                   CNVDIIS         .... on
   Start iteration      DIISMaxIt       ....    12
   Startup error        DIISStart       ....  0.200000
   # of expansion vecs  DIISMaxEq       ....     5
   Bias factor          DIISBfac        ....   1.050
   Max. coefficient     DIISMaxC        ....  10.000
 Trust-Rad. Augm. Hess. CNVTRAH         .... auto
   Auto Start mean grad. ratio tolernc. ....  1.125000
   Auto Start start iteration           ....    20
   Auto Start num. interpolation iter.  ....    10
   Max. Number of Micro iterations      ....    16
   Max. Number of Macro iterations      .... Maxiter - #DIIS iter
   Number of Davidson start vectors     ....     2
   Converg. threshold I  (grad. norm)   ....   1.000e-05
   Converg. threshold II (energy diff.) ....   1.000e-08
   Grad. Scal. Fac. for Micro threshold ....   0.100
   Minimum threshold for Micro iter.    ....   0.010
   NR start threshold (gradient norm)   ....   0.001
   Initial trust radius                 ....   0.400
   Minimum AH scaling param. (alpha)    ....   1.000
   Maximum AH scaling param. (alpha)    .... 1000.000
   Orbital update algorithm             .... Taylor
   White noise on init. David. guess    .... on
   Maximum white noise                  ....   0.010
   Quad. conv. algorithm                .... NR
 SOSCF                  CNVSOSCF        .... on
   Start iteration      SOSCFMaxIt      ....   150
   Startup grad/error   SOSCFStart      ....  0.003300
 Level Shifting         CNVShift        .... on
   Level shift para.    LevelShift      ....    0.2500
   Turn off err/grad.   ShiftErr        ....    0.0010
 Zerner damping         CNVZerner       .... off
 Static damping         CNVDamp         .... on
   Fraction old density DampFac         ....    0.7000
   Max. Damping (<1)    DampMax         ....    0.9800
   Min. Damping (>=0)   DampMin         ....    0.0000
   Turn off err/grad.   DampErr         ....    0.1000
 Fernandez-Rico         CNVRico         .... off

SCF Procedure:
 Maximum # iterations   MaxIter         ....   125
 SCF integral mode      SCFMode         .... Direct
   Integral package                     .... SHARK and LIBINT hybrid scheme
 Reset frequency        DirectResetFreq ....    20
 Integral Threshold     Thresh          ....  2.500e-11 Eh
 Primitive CutOff       TCut            ....  2.500e-12 Eh

Convergence Tolerance:
 Convergence Check Mode ConvCheckMode   .... Total+1el-Energy
 Convergence forced     ConvForced      .... 0
 Energy Change          TolE            ....  1.000e-08 Eh
 1-El. energy change                    ....  1.000e-05 Eh
 Orbital Gradient       TolG            ....  1.000e-05
 Orbital Rotation angle TolX            ....  1.000e-05
 DIIS Error             TolErr          ....  5.000e-07


Diagonalization of the overlap matrix:
Smallest eigenvalue                        ... 6.353e-06
Time for diagonalization                   ...    0.306 sec
Threshold for overlap eigenvalues          ... 1.000e-08
Number of eigenvalues below threshold      ... 0
Time for construction of square roots      ...    0.182 sec
Total time needed                          ...    0.496 sec

Time for model grid setup =    0.493 sec

------------------------------
INITIAL GUESS: MODEL POTENTIAL
------------------------------
Loading Hartree-Fock densities                     ... done
Calculating cut-offs                               ... done
Initializing the effective Hamiltonian             ... done
Setting up the integral package (SHARK)            ... done
Starting the Coulomb interaction                   ... done (   1.2 sec)
Reading the grid                                   ... done
Mapping shells                                     ... done
Starting the XC term evaluation                    ... done (   0.5 sec)
  promolecular density results
     # of electrons  =    182.993359188
     EX              =    -95.412805876
     EC              =     -7.505617417
     EX+EC           =   -102.918423293
Transforming the Hamiltonian                       ... done (   0.2 sec)
Diagonalizing the Hamiltonian                      ... done (   0.3 sec)
Back transforming the eigenvectors                 ... done (   0.1 sec)
Now organizing SCF variables                       ... done
                      ------------------
                      INITIAL GUESS DONE (   2.7 sec)
                      ------------------
-------------------
DFT GRID GENERATION
-------------------

General Integration Accuracy     IntAcc      ... 4.959
Radial Grid Type                 RadialGrid  ... OptM3 with GC (2021)
Angular Grid (max. ang.)         AngularGrid ... 6 (Lebedev-590)
Angular grid pruning method      GridPruning ... 4 (adaptive)
Weight generation scheme         WeightScheme... Becke
Basis function cutoff            BFCut       ... 1.0000e-11
Integration weight cutoff        WCut        ... 1.0000e-14
Angular grids for H and He will be reduced by one unit
Partially contracted basis set               ... off
Rotationally invariant grid construction     ... off

Total number of grid points                  ...   596248
Total number of batches                      ...     9342
Average number of points per batch           ...       63
Average number of grid points per atom       ...    11042
Time for grid setup =    8.449 sec

--------------------
COSX GRID GENERATION
--------------------

GRIDX 1
-------
General Integration Accuracy     IntAcc      ... 4.020
Radial Grid Type                 RadialGrid  ... OptM3 with GC (2021)
Angular Grid (max. ang.)         AngularGrid ... 2 (Lebedev-110)
Angular grid pruning method      GridPruning ... 4 (adaptive)
Weight generation scheme         WeightScheme... Becke
Basis function cutoff            BFCut       ... 1.0000e-11
Integration weight cutoff        WCut        ... 1.0000e-14
Angular grids for H and He will be reduced by one unit
Partially contracted basis set               ... on
Rotationally invariant grid construction     ... off

Total number of grid points                  ...    64308
Total number of batches                      ...     1029
Average number of points per batch           ...       62
Average number of grid points per atom       ...     1191
UseSFitting                                  ... on

GRIDX 2
-------
General Integration Accuracy     IntAcc      ... 4.338
Radial Grid Type                 RadialGrid  ... OptM3 with GC (2021)
Angular Grid (max. ang.)         AngularGrid ... 3 (Lebedev-194)
Angular grid pruning method      GridPruning ... 4 (adaptive)
Weight generation scheme         WeightScheme... Becke
Basis function cutoff            BFCut       ... 1.0000e-11
Integration weight cutoff        WCut        ... 1.0000e-14
Angular grids for H and He will be reduced by one unit
Partially contracted basis set               ... on
Rotationally invariant grid construction     ... off

Total number of grid points                  ...   139721
Total number of batches                      ...     2211
Average number of points per batch           ...       63
Average number of grid points per atom       ...     2587
UseSFitting                                  ... on

GRIDX 3
-------
General Integration Accuracy     IntAcc      ... 4.871
Radial Grid Type                 RadialGrid  ... OptM3 with GC (2021)
Angular Grid (max. ang.)         AngularGrid ... 4 (Lebedev-302)
Angular grid pruning method      GridPruning ... 4 (adaptive)
Weight generation scheme         WeightScheme... Becke
Basis function cutoff            BFCut       ... 1.0000e-11
Integration weight cutoff        WCut        ... 1.0000e-14
[...]
 71:   1036.49   0.000163    0.82  0.000049  ( 0.000339 -0.005388 -0.004466)
 72:   1044.74   0.001860    9.40  0.000556  (-0.020862  0.007314 -0.008172)
 73:   1046.52   0.000069    0.35  0.000021  (-0.002637  0.003552  0.001003)
 74:   1054.65   0.001491    7.54  0.000441  (-0.003106 -0.001344  0.020732)
 75:   1063.49   0.001492    7.54  0.000438  (-0.018287 -0.008800 -0.005093)
 76:   1069.24   0.000488    2.46  0.000142  ( 0.002647 -0.005250 -0.010381)
 77:   1077.31   0.012015   60.72  0.003480  ( 0.058591  0.002101  0.006558)
 78:   1116.05   0.002684   13.57  0.000751  ( 0.025462  0.007300  0.007000)
 79:   1117.54   0.000974    4.92  0.000272  ( 0.003275  0.010124 -0.012600)
 80:   1118.29   0.000547    2.76  0.000153  (-0.001972 -0.007285  0.009775)
 81:   1120.18   0.000782    3.95  0.000218  ( 0.007930  0.010149  0.007201)
 82:   1148.08   0.000085    0.43  0.000023  ( 0.003414 -0.003321 -0.000683)
 83:   1151.71   0.003350   16.93  0.000908  ( 0.029278  0.006346  0.003178)
 84:   1171.76   0.001956    9.88  0.000521  (-0.004703 -0.010859  0.019514)
 85:   1183.01   0.000462    2.34  0.000122  (-0.003683 -0.006956  0.007747)
 86:   1189.44   0.000146    0.74  0.000038  ( 0.000900  0.003360 -0.005127)
 87:   1197.21   0.001057    5.34  0.000276  (-0.013861  0.008691  0.002814)
 88:   1203.06   0.002927   14.79  0.000759  ( 0.023267 -0.014431  0.003100)
 89:   1206.62   0.001536    7.76  0.000397  (-0.013053  0.014518  0.004021)
 90:   1212.07   0.000112    0.57  0.000029  ( 0.000448  0.003728  0.003832)
 91:   1236.78   0.008234   41.61  0.002078  ( 0.005605 -0.038660 -0.023488)
 92:   1245.81   0.000151    0.76  0.000038  ( 0.005293 -0.003138 -0.000048)
 93:   1249.84   0.000395    2.00  0.000099  ( 0.007371  0.006281 -0.002208)
 94:   1271.51   0.000734    3.71  0.000180  (-0.011408  0.001439  0.006915)
 95:   1282.46   0.008664   43.78  0.002108  ( 0.026179 -0.034576 -0.015079)
 96:   1304.21   0.000420    2.12  0.000101  ( 0.001554  0.005362 -0.008329)
 97:   1314.55   0.000414    2.09  0.000098  (-0.006549 -0.006070 -0.004303)
 98:   1315.72   0.000330    1.67  0.000078  (-0.001136 -0.005024  0.007188)
 99:   1319.25   0.000194    0.98  0.000046  ( 0.005371 -0.002922 -0.002907)
100:   1342.00   0.000188    0.95  0.000044  ( 0.003981  0.001840 -0.004945)
101:   1352.61   0.008839   44.67  0.002039  (-0.044951 -0.004100 -0.001375)
102:   1356.99   0.001027    5.19  0.000236  ( 0.010192  0.000454  0.011492)
103:   1361.04   0.000272    1.37  0.000062  (-0.001981 -0.003625  0.006730)
104:   1370.45   0.001989   10.05  0.000453  ( 0.020195 -0.006685 -0.000530)
105:   1373.57   0.002400   12.13  0.000545  ( 0.005645  0.010449 -0.020107)
106:   1386.35   0.000535    2.70  0.000120  (-0.009393 -0.002187 -0.005236)
107:   1392.55   0.000839    4.24  0.000188  ( 0.004604 -0.004528  0.012097)
108:   1399.83   0.000167    0.85  0.000037  ( 0.002752 -0.001174  0.005322)
109:   1408.23   0.005209   26.33  0.001154  (-0.032324 -0.003624  0.009819)
110:   1415.87   0.004282   21.64  0.000944  ( 0.026925 -0.008288  0.012256)
111:   1429.15   0.015193   76.78  0.003317  (-0.012825  0.047828  0.029417)
112:   1445.31   0.006385   32.27  0.001379  (-0.031687 -0.007466 -0.017858)
113:   1447.00   0.009332   47.16  0.002013  (-0.023423  0.033202  0.019014)
114:   1455.14   0.005851   29.57  0.001255  (-0.020112  0.026751  0.011602)
115:   1484.03   0.014767   74.63  0.003105  ( 0.025590 -0.043614 -0.023414)
116:   1489.14   0.000816    4.12  0.000171  ( 0.003973 -0.012149 -0.002760)
117:   1489.63   0.001727    8.73  0.000362  (-0.002800  0.018769  0.001268)
118:   1497.40   0.001532    7.74  0.000319  (-0.015053 -0.004722 -0.008384)
119:   1508.22   0.002423   12.24  0.000501  ( 0.020124 -0.001447 -0.009707)
120:   1508.69   0.001123    5.68  0.000232  (-0.004566  0.014206 -0.003118)
121:   1510.57   0.001066    5.39  0.000220  ( 0.002620  0.006557 -0.013052)
122:   1512.29   0.001140    5.76  0.000235  (-0.003832  0.014579 -0.002826)
123:   1517.73   0.002865   14.48  0.000589  (-0.005819 -0.012001  0.020277)
124:   1519.33   0.005503   27.81  0.001130  (-0.030470  0.014122  0.001578)
125:   1523.28   0.000856    4.33  0.000175  ( 0.011796 -0.005836  0.001468)
126:   1553.47   0.005955   30.09  0.001196  ( 0.019001 -0.025373 -0.013835)
127:   1555.42   0.002437   12.31  0.000489  (-0.001609  0.007796  0.020628)
128:   1671.47   0.000207    1.04  0.000039  (-0.002850 -0.005369  0.001273)
129:   1680.20   0.000857    4.33  0.000159  (-0.002012 -0.007252  0.010121)
130:   1682.62   0.003179   16.06  0.000590  ( 0.007935  0.018231  0.013935)
131:   1694.37   0.001207    6.10  0.000222  (-0.006080  0.005175  0.012595)
132:   1733.92   0.071105  359.34  0.012797  ( 0.073101  0.066143  0.055485)
133:   2971.90   0.008211   41.49  0.000862  ( 0.007371 -0.028107 -0.004224)
134:   3010.74   0.006006   30.35  0.000622  ( 0.004154 -0.012132 -0.021402)
135:   3058.39   0.004248   21.47  0.000433  (-0.007985 -0.015115 -0.011881)
136:   3059.32   0.001356    6.85  0.000138  (-0.004439  0.009423  0.005462)
137:   3071.74   0.007587   38.34  0.000771  (-0.015426 -0.001672 -0.023023)
138:   3073.57   0.003122   15.78  0.000317  ( 0.004297  0.010129 -0.013996)
139:   3075.20   0.004427   22.37  0.000449  ( 0.020308 -0.006043 -0.000588)
140:   3100.17   0.001413    7.14  0.000142  ( 0.009771  0.004816  0.004857)
141:   3104.93   0.001114    5.63  0.000112  ( 0.006706  0.003726  0.007288)
142:   3110.20   0.003301   16.68  0.000331  (-0.003732  0.003481 -0.017470)
143:   3120.15   0.003928   19.85  0.000393  ( 0.008946  0.010519 -0.014219)
144:   3122.24   0.001193    6.03  0.000119  ( 0.001742  0.005992 -0.008963)
145:   3126.94   0.004546   22.97  0.000454  (-0.011569 -0.009416  0.015204)
146:   3132.54   0.003542   17.90  0.000353  (-0.005168 -0.016768 -0.006711)
147:   3134.76   0.000443    2.24  0.000044  ( 0.001137 -0.001336  0.006406)
148:   3143.47   0.000192    0.97  0.000019  ( 0.000722  0.002395 -0.003572)
149:   3161.47   0.001550    7.83  0.000153  ( 0.005491 -0.009625 -0.005492)
150:   3166.88   0.000190    0.96  0.000019  (-0.003673  0.002147  0.000770)
151:   3182.25   0.001821    9.20  0.000179  ( 0.005369  0.002041 -0.012064)
152:   3185.61   0.001044    5.28  0.000102  ( 0.002684  0.008200  0.005276)
153:   3201.02   0.000606    3.06  0.000059  ( 0.001925  0.001716 -0.007243)
154:   3210.02   0.003491   17.64  0.000339  (-0.008576 -0.016118  0.002460)
155:   3210.58   0.000289    1.46  0.000028  (-0.002511  0.004089  0.002260)
156:   3213.88   0.000015    0.08  0.000001  ( 0.000160  0.000694 -0.000970)
157:   3220.88   0.000599    3.02  0.000058  ( 0.003473 -0.005927 -0.003287)
158:   3223.40   0.001678    8.48  0.000162  (-0.001899  0.003275  0.012169)
159:   3229.52   0.000184    0.93  0.000018  ( 0.000681  0.002203 -0.003529)
160:   3237.27   0.000059    0.30  0.000006  ( 0.001119 -0.001821 -0.001037)
161:   3785.22   0.054748  276.68  0.004514  ( 0.039801  0.041953  0.034197)

* The epsilon (eps) is given for a Dirac delta lineshape.
** The dipole moment derivative (T) already includes vibrational overlap.

The first frequency considered to be a vibration is 7
The total number of vibrations considered is 155


--------------------------
THERMOCHEMISTRY AT 298.15K
--------------------------

Temperature         ... 298.15 K
Pressure            ... 1.00 atm
Total Mass          ... 337.49 AMU

Throughout the following assumptions are being made:
  (1) The electronic state is orbitally nondegenerate
  (2) There are no thermally accessible electronically excited states
  (3) Hindered rotations indicated by low frequency modes are not
      treated as such but are treated as vibrations and this may
      cause some error
  (4) All equations used are the standard statistical mechanics
      equations for an ideal gas
  (5) All vibrations are strictly harmonic

freq.      24.06  E(vib)   ...       0.56 
freq.      35.33  E(vib)   ...       0.54 
freq.      42.21  E(vib)   ...       0.53 
freq.      51.53  E(vib)   ...       0.52 
freq.      60.28  E(vib)   ...       0.51 
freq.      69.69  E(vib)   ...       0.50 
freq.      76.82  E(vib)   ...       0.49 
freq.      91.02  E(vib)   ...       0.47 
freq.     104.14  E(vib)   ...       0.46 
freq.     125.26  E(vib)   ...       0.43 
freq.     151.71  E(vib)   ...       0.40 
freq.     181.89  E(vib)   ...       0.37 
freq.     231.00  E(vib)   ...       0.32 
freq.     243.78  E(vib)   ...       0.31 
freq.     258.70  E(vib)   ...       0.30 
freq.     264.35  E(vib)   ...       0.29 
freq.     279.28  E(vib)   ...       0.28 
freq.     281.21  E(vib)   ...       0.28 
freq.     320.64  E(vib)   ...       0.25 
freq.     346.86  E(vib)   ...       0.23 
freq.     358.07  E(vib)   ...       0.22 
freq.     395.35  E(vib)   ...       0.20 
freq.     406.89  E(vib)   ...       0.19 
freq.     420.49  E(vib)   ...       0.18 
freq.     425.57  E(vib)   ...       0.18 
freq.     428.28  E(vib)   ...       0.18 
freq.     469.54  E(vib)   ...       0.16 
freq.     472.91  E(vib)   ...       0.15 
freq.     501.98  E(vib)   ...       0.14 
freq.     506.79  E(vib)   ...       0.14 
freq.     508.69  E(vib)   ...       0.14 
freq.     541.64  E(vib)   ...       0.12 
freq.     556.56  E(vib)   ...       0.12 
freq.     608.96  E(vib)   ...       0.10 
freq.     622.76  E(vib)   ...       0.09 
freq.     627.28  E(vib)   ...       0.09 
freq.     638.82  E(vib)   ...       0.09 
freq.     662.88  E(vib)   ...       0.08 
freq.     672.74  E(vib)   ...       0.08 
freq.     727.31  E(vib)   ...       0.06 
freq.     730.35  E(vib)   ...       0.06 
freq.     758.21  E(vib)   ...       0.06 
freq.     768.81  E(vib)   ...       0.06 
freq.     781.86  E(vib)   ...       0.05 
freq.     792.51  E(vib)   ...       0.05 
freq.     811.39  E(vib)   ...       0.05 
freq.     812.63  E(vib)   ...       0.05 
freq.     849.50  E(vib)   ...       0.04 
freq.     866.62  E(vib)   ...       0.04 
freq.     880.92  E(vib)   ...       0.04 
freq.     882.20  E(vib)   ...       0.04 
freq.     911.79  E(vib)   ...       0.03 
freq.     939.44  E(vib)   ...       0.03 
freq.     953.92  E(vib)   ...       0.03 
freq.     960.53  E(vib)   ...       0.03 
freq.     972.49  E(vib)   ...       0.03 
freq.     981.84  E(vib)   ...       0.02 
freq.    1007.92  E(vib)   ...       0.02 
freq.    1009.31  E(vib)   ...       0.02 
freq.    1011.73  E(vib)   ...       0.02 
freq.    1022.86  E(vib)   ...       0.02 
freq.    1023.46  E(vib)   ...       0.02 
freq.    1028.73  E(vib)   ...       0.02 
freq.    1033.60  E(vib)   ...       0.02 
freq.    1036.49  E(vib)   ...       0.02 
freq.    1044.74  E(vib)   ...       0.02 
freq.    1046.52  E(vib)   ...       0.02 
freq.    1054.65  E(vib)   ...       0.02 
freq.    1063.49  E(vib)   ...       0.02 
freq.    1069.24  E(vib)   ...       0.02 
freq.    1077.31  E(vib)   ...       0.02 
freq.    1116.05  E(vib)   ...       0.01 
freq.    1117.54  E(vib)   ...       0.01 
freq.    1118.29  E(vib)   ...       0.01 
freq.    1120.18  E(vib)   ...       0.01 
freq.    1148.08  E(vib)   ...       0.01 
freq.    1151.71  E(vib)   ...       0.01 
freq.    1171.76  E(vib)   ...       0.01 
freq.    1183.01  E(vib)   ...       0.01 
freq.    1189.44  E(vib)   ...       0.01 
freq.    1197.21  E(vib)   ...       0.01 
freq.    1203.06  E(vib)   ...       0.01 
freq.    1206.62  E(vib)   ...       0.01 
freq.    1212.07  E(vib)   ...       0.01 
freq.    1236.78  E(vib)   ...       0.01 
freq.    1245.81  E(vib)   ...       0.01 
freq.    1249.84  E(vib)   ...       0.01 
freq.    1271.51  E(vib)   ...       0.01 
freq.    1282.46  E(vib)   ...       0.01 
freq.    1304.21  E(vib)   ...       0.01 
freq.    1314.55  E(vib)   ...       0.01 
freq.    1315.72  E(vib)   ...       0.01 
freq.    1319.25  E(vib)   ...       0.01 
freq.    1342.00  E(vib)   ...       0.01 
freq.    1352.61  E(vib)   ...       0.01 
freq.    1356.99  E(vib)   ...       0.01 
freq.    1361.04  E(vib)   ...       0.01 
freq.    1370.45  E(vib)   ...       0.01 
freq.    1373.57  E(vib)   ...       0.01 
freq.    1386.35  E(vib)   ...       0.00 
freq.    1392.55  E(vib)   ...       0.00 
freq.    1399.83  E(vib)   ...       0.00 
freq.    1408.23  E(vib)   ...       0.00 
freq.    1415.87  E(vib)   ...       0.00 
freq.    1429.15  E(vib)   ...       0.00 
freq.    1445.31  E(vib)   ...       0.00 
freq.    1447.00  E(vib)   ...       0.00 
freq.    1455.14  E(vib)   ...       0.00 
freq.    1484.03  E(vib)   ...       0.00 
freq.    1489.14  E(vib)   ...       0.00 
freq.    1489.63  E(vib)   ...       0.00 
freq.    1497.40  E(vib)   ...       0.00 
freq.    1508.22  E(vib)   ...       0.00 
freq.    1508.69  E(vib)   ...       0.00 
freq.    1510.57  E(vib)   ...       0.00 
freq.    1512.29  E(vib)   ...       0.00 
freq.    1517.73  E(vib)   ...       0.00 
freq.    1519.33  E(vib)   ...       0.00 
freq.    1523.28  E(vib)   ...       0.00 
freq.    1553.47  E(vib)   ...       0.00 
freq.    1555.42  E(vib)   ...       0.00 
freq.    1671.47  E(vib)   ...       0.00 
freq.    1680.20  E(vib)   ...       0.00 
freq.    1682.62  E(vib)   ...       0.00 
freq.    1694.37  E(vib)   ...       0.00 
freq.    1733.92  E(vib)   ...       0.00 
freq.    2971.90  E(vib)   ...       0.00 
freq.    3010.74  E(vib)   ...       0.00 
freq.    3058.39  E(vib)   ...       0.00 
freq.    3059.32  E(vib)   ...       0.00 
freq.    3071.74  E(vib)   ...       0.00 
freq.    3073.57  E(vib)   ...       0.00 
freq.    3075.20  E(vib)   ...       0.00 
freq.    3100.17  E(vib)   ...       0.00 
freq.    3104.93  E(vib)   ...       0.00 
freq.    3110.20  E(vib)   ...       0.00 
freq.    3120.15  E(vib)   ...       0.00 
freq.    3122.24  E(vib)   ...       0.00 
freq.    3126.94  E(vib)   ...       0.00 
freq.    3132.54  E(vib)   ...       0.00 
freq.    3134.76  E(vib)   ...       0.00 
freq.    3143.47  E(vib)   ...       0.00 
freq.    3161.47  E(vib)   ...       0.00 
freq.    3166.88  E(vib)   ...       0.00 
freq.    3182.25  E(vib)   ...       0.00 
freq.    3185.61  E(vib)   ...       0.00 
freq.    3201.02  E(vib)   ...       0.00 
freq.    3210.02  E(vib)   ...       0.00 
freq.    3210.58  E(vib)   ...       0.00 
freq.    3213.88  E(vib)   ...       0.00 
freq.    3220.88  E(vib)   ...       0.00 
freq.    3223.40  E(vib)   ...       0.00 
freq.    3229.52  E(vib)   ...       0.00 
freq.    3237.27  E(vib)   ...       0.00 
freq.    3785.22  E(vib)   ...       0.00 

------------
INNER ENERGY
------------

The inner energy is: U= E(el) + E(ZPE) + E(vib) + E(rot) + E(trans)
    E(el)   - is the total energy from the electronic structure calculation
              = E(kin-el) + E(nuc-el) + E(el-el) + E(nuc-nuc)
    E(ZPE)  - the the zero temperature vibrational energy from the frequency calculation
    E(vib)  - the the finite temperature correction to E(ZPE) due to population
              of excited vibrational states
    E(rot)  - is the rotational thermal energy
    E(trans)- is the translational thermal energy

Summary of contributions to the inner energy U:
Electronic energy                ...  -1041.20878755 Eh
Zero point energy                ...      0.47924797 Eh     300.73 kcal/mol
Thermal vibrational correction   ...      0.01922639 Eh      12.06 kcal/mol
Thermal rotational correction    ...      0.00141627 Eh       0.89 kcal/mol
Thermal translational correction ...      0.00141627 Eh       0.89 kcal/mol
-----------------------------------------------------------------------
Total thermal energy                  -1040.70748066 Eh


Summary of corrections to the electronic energy:
(perhaps to be used in another calculation)
Total thermal correction                  0.02205893 Eh      13.84 kcal/mol
Non-thermal (ZPE) correction              0.47924797 Eh     300.73 kcal/mol
-----------------------------------------------------------------------
Total correction                          0.50130690 Eh     314.57 kcal/mol


--------
ENTHALPY
--------

The enthalpy is H = U + kB*T
                kB is Boltzmann's constant
Total free energy                 ...  -1040.70748066 Eh 
Thermal Enthalpy correction       ...      0.00094421 Eh       0.59 kcal/mol
-----------------------------------------------------------------------
Total Enthalpy                    ...  -1040.70653645 Eh


Note: Only C1 symmetry has been detected, increase convergence thresholds 
      if your molecule has a higher symmetry. Symmetry factor of 1.0 is   
      used for the rotational entropy correction. 
 

Note: Rotational entropy computed according to Herzberg 
Infrared and Raman Spectra, Chapter V,1, Van Nostrand Reinhold, 1945 
Point Group:  C1, Symmetry Number:   1  
Rotational constants in cm-1:     0.012640     0.003850     0.003338 

Vibrational entropy computed according to the QRRHO of S. Grimme
Chem.Eur.J. 2012 18 9955


-------
ENTROPY
-------

The entropy contributions are T*S = T*(S(el)+S(vib)+S(rot)+S(trans))
     S(el)   - electronic entropy
     S(vib)  - vibrational entropy
     S(rot)  - rotational entropy
     S(trans)- translational entropy
The entropies will be listed as multiplied by the temperature to get
units of energy

Electronic entropy                ...      0.00000000 Eh      0.00 kcal/mol
Vibrational entropy               ...      0.03356404 Eh     21.06 kcal/mol
Rotational entropy                ...      0.01689089 Eh     10.60 kcal/mol
Translational entropy             ...      0.02059393 Eh     12.92 kcal/mol
-----------------------------------------------------------------------
Final entropy term                ...      0.07104886 Eh     44.58 kcal/mol

In case the symmetry of your molecule has not been determined correctly
or in case you have a reason to use a different symmetry number we print 
out the resulting rotational entropy values for sn=1,12 :
 --------------------------------------------------------
|  sn= 1 | S(rot)=       0.01689089 Eh     10.60 kcal/mol|
|  sn= 2 | S(rot)=       0.01623643 Eh     10.19 kcal/mol|
|  sn= 3 | S(rot)=       0.01585360 Eh      9.95 kcal/mol|
|  sn= 4 | S(rot)=       0.01558197 Eh      9.78 kcal/mol|
|  sn= 5 | S(rot)=       0.01537129 Eh      9.65 kcal/mol|
|  sn= 6 | S(rot)=       0.01519914 Eh      9.54 kcal/mol|
|  sn= 7 | S(rot)=       0.01505360 Eh      9.45 kcal/mol|
|  sn= 8 | S(rot)=       0.01492752 Eh      9.37 kcal/mol|
|  sn= 9 | S(rot)=       0.01481631 Eh      9.30 kcal/mol|
|  sn=10 | S(rot)=       0.01471683 Eh      9.23 kcal/mol|
|  sn=11 | S(rot)=       0.01462684 Eh      9.18 kcal/mol|
|  sn=12 | S(rot)=       0.01454469 Eh      9.13 kcal/mol|
 --------------------------------------------------------


-------------------
GIBBS FREE ENERGY
-------------------

The Gibbs free energy is G = H - T*S

Total enthalpy                    ...  -1040.70653645 Eh 
Total entropy correction          ...     -0.07104886 Eh    -44.58 kcal/mol
-----------------------------------------------------------------------
Final Gibbs free energy         ...  -1040.77758531 Eh

For completeness - the Gibbs free energy minus the electronic energy
G-E(el)                           ...      0.43120224 Eh    270.58 kcal/mol


Timings for individual modules:

Sum of individual times         ...    24503.041 sec (= 408.384 min)
GTO integral calculation        ...       25.475 sec (=   0.425 min)   0.1 %
SCF iterations                  ...     7407.859 sec (= 123.464 min)  30.2 %
SCF Gradient evaluation         ...     2024.316 sec (=  33.739 min)   8.3 %
Geometry relaxation             ...        2.689 sec (=   0.045 min)   0.0 %
Analytical frequency calculation...    12374.293 sec (= 206.238 min)  50.5 %
CHELPG charge generation        ...     2668.409 sec (=  44.473 min)  10.9 %
                             ****ORCA TERMINATED NORMALLY****
TOTAL RUN TIME: 0 days 6 hours 48 minutes 35 seconds 316 msec
