
Lmod is automatically replacing "intel/2020.1.217" with "gcc/10.3.0".


The following have been reloaded with a version change:
  1) gcccore/.9.3.0 => gcccore/.10.3.0        3) openmpi/4.0.3 => openmpi/4.1.1
  2) libfabric/1.10.1 => libfabric/1.12.1     4) ucx/1.8.0 => ucx/1.9.0

To execute ORCA, run: 
   ${EBROOTORCA}/orca orca.inp > orca.out

                                 *****************
                                 * O   R   C   A *
                                 *****************

                                            #,                                       
                                            ###                                      
                                            ####                                     
                                            #####                                    
                                            ######                                   
                                           ########,                                 
                                     ,,################,,,,,                         
                               ,,#################################,,                 
                          ,,##########################################,,             
                       ,#########################################, ''#####,          
                    ,#############################################,,   '####,        
                  ,##################################################,,,,####,       
                ,###########''''           ''''###############################       
              ,#####''   ,,,,##########,,,,          '''####'''          '####       
            ,##' ,,,,###########################,,,                        '##       
           ' ,,###''''                  '''############,,,                           
         ,,##''                                '''############,,,,        ,,,,,,###''
      ,#''                                            '''#######################'''  
     '                                                          ''''####''''         
             ,#######,   #######,   ,#######,      ##                                
            ,#'     '#,  ##    ##  ,#'     '#,    #''#        ######   ,####,        
            ##       ##  ##   ,#'  ##            #'  '#       #        #'  '#        
            ##       ##  #######   ##           ,######,      #####,   #    #        
            '#,     ,#'  ##    ##  '#,     ,#' ,#      #,         ##   #,  ,#        
             '#######'   ##     ##  '#######'  #'      '#     #####' # '####'        



                  #######################################################
                  #                        -***-                        #
                  #          Department of theory and spectroscopy      #
                  #    Directorship and core code : Frank Neese         #
                  #        Max Planck Institute fuer Kohlenforschung    #
                  #                Kaiser Wilhelm Platz 1               #
                  #                 D-45470 Muelheim/Ruhr               #
                  #                      Germany                        #
                  #                                                     #
                  #                  All rights reserved                #
                  #                        -***-                        #
                  #######################################################


                         Program Version 5.0.4 -  RELEASE  -


 With contributions from (in alphabetic order):
   Daniel Aravena         : Magnetic Suceptibility
   Michael Atanasov       : Ab Initio Ligand Field Theory (pilot matlab implementation)
   Alexander A. Auer      : GIAO ZORA, VPT2 properties, NMR spectrum
   Ute Becker             : Parallelization
   Giovanni Bistoni       : ED, misc. LED, open-shell LED, HFLD
   Martin Brehm           : Molecular dynamics
   Dmytro Bykov           : SCF Hessian
   Vijay G. Chilkuri      : MRCI spin determinant printing, contributions to CSF-ICE
   Dipayan Datta          : RHF DLPNO-CCSD density
   Achintya Kumar Dutta   : EOM-CC, STEOM-CC
   Dmitry Ganyushin       : Spin-Orbit,Spin-Spin,Magnetic field MRCI
   Miquel Garcia          : C-PCM and meta-GGA Hessian, CC/C-PCM, Gaussian charge scheme
   Yang Guo               : DLPNO-NEVPT2, F12-NEVPT2, CIM, IAO-localization
   Andreas Hansen         : Spin unrestricted coupled pair/coupled cluster methods
   Benjamin Helmich-Paris : MC-RPA, TRAH-SCF, COSX integrals
   Lee Huntington         : MR-EOM, pCC
   Robert Izsak           : Overlap fitted RIJCOSX, COSX-SCS-MP3, EOM
   Marcus Kettner         : VPT2
   Christian Kollmar      : KDIIS, OOCD, Brueckner-CCSD(T), CCSD density, CASPT2, CASPT2-K
   Simone Kossmann        : Meta GGA functionals, TD-DFT gradient, OOMP2, MP2 Hessian
   Martin Krupicka        : Initial AUTO-CI
   Lucas Lang             : DCDCAS
   Marvin Lechner         : AUTO-CI (C++ implementation), FIC-MRCC
   Dagmar Lenk            : GEPOL surface, SMD
   Dimitrios Liakos       : Extrapolation schemes; Compound Job, initial MDCI parallelization
   Dimitrios Manganas     : Further ROCIS development; embedding schemes
   Dimitrios Pantazis     : SARC Basis sets
   Anastasios Papadopoulos: AUTO-CI, single reference methods and gradients
   Taras Petrenko         : DFT Hessian,TD-DFT gradient, ASA, ECA, R-Raman, ABS, FL, XAS/XES, NRVS
   Peter Pinski           : DLPNO-MP2, DLPNO-MP2 Gradient
   Christoph Reimann      : Effective Core Potentials
   Marius Retegan         : Local ZFS, SOC
   Christoph Riplinger    : Optimizer, TS searches, QM/MM, DLPNO-CCSD(T), (RO)-DLPNO pert. Triples
   Tobias Risthaus        : Range-separated hybrids, TD-DFT gradient, RPA, STAB
   Michael Roemelt        : Original ROCIS implementation
   Masaaki Saitow         : Open-shell DLPNO-CCSD energy and density
   Barbara Sandhoefer     : DKH picture change effects
   Avijit Sen             : IP-ROCIS
   Kantharuban Sivalingam : CASSCF convergence, NEVPT2, FIC-MRCI
   Bernardo de Souza      : ESD, SOC TD-DFT
   Georgi Stoychev        : AutoAux, RI-MP2 NMR, DLPNO-MP2 response
   Willem Van den Heuvel  : Paramagnetic NMR
   Boris Wezisla          : Elementary symmetry handling
   Frank Wennmohs         : Technical directorship


 We gratefully acknowledge several colleagues who have allowed us to
 interface, adapt or use parts of their codes:
   Stefan Grimme, W. Hujo, H. Kruse, P. Pracht,  : VdW corrections, initial TS optimization,
                  C. Bannwarth, S. Ehlert          DFT functionals, gCP, sTDA/sTD-DF
   Ed Valeev, F. Pavosevic, A. Kumar             : LibInt (2-el integral package), F12 methods
   Garnet Chan, S. Sharma, J. Yang, R. Olivares  : DMRG
   Ulf Ekstrom                                   : XCFun DFT Library
   Mihaly Kallay                                 : mrcc  (arbitrary order and MRCC methods)
   Jiri Pittner, Ondrej Demel                    : Mk-CCSD
   Frank Weinhold                                : gennbo (NPA and NBO analysis)
   Christopher J. Cramer and Donald G. Truhlar   : smd solvation model
   Lars Goerigk                                  : TD-DFT with DH, B97 family of functionals
   V. Asgeirsson, H. Jonsson                     : NEB implementation
   FAccTs GmbH                                   : IRC, NEB, NEB-TS, DLPNO-Multilevel, CI-OPT
                                                   MM, QMMM, 2- and 3-layer-ONIOM, Crystal-QMMM,
                                                   LR-CPCM, SF, NACMEs, symmetry and pop. for TD-DFT,
                                                   nearIR, NL-DFT gradient (VV10), updates on ESD,
                                                   ML-optimized integration grids
   S Lehtola, MJT Oliveira, MAL Marques          : LibXC Library
   Liviu Ungur et al                             : ANISO software


 Your calculation uses the libint2 library for the computation of 2-el integrals
 For citations please refer to: http://libint.valeyev.net

 Your ORCA version has been built with support for libXC version: 5.1.0
 For citations please refer to: https://tddft.org/programs/libxc/

 This ORCA versions uses:
   CBLAS   interface :  Fast vector & matrix operations
   LAPACKE interface :  Fast linear algebra routines
   SCALAPACK package :  Parallel linear algebra routines
   Shared memory     :  Shared parallel matrices
   BLAS/LAPACK       :  OpenBLAS 0.3.15  USE64BITINT DYNAMIC_ARCH NO_AFFINITY Haswell SINGLE_THREADED
        Core in use  :  Haswell
   Copyright (c) 2011-2014, The OpenBLAS Project


Your calculation utilizes the atom-pairwise dispersion correction
with the Becke-Johnson damping scheme (D3BJ)
Cite in your paper:
S.Grimme, S.Ehrlich, L.Goerigk, J Comput Chem, (2011), 32, 1456–1465 
S.Grimme, J.Antony, S.Ehrlich and H.Krieg, J.Chem.Phys., 132, (2010), 154104 
   

================================================================================

----- Orbital basis set information -----
Your calculation utilizes the basis: def2-TZVP
   F. Weigend and R. Ahlrichs, Phys. Chem. Chem. Phys. 7, 3297 (2005).

----- AuxJ basis set information -----
Your calculation utilizes the auxiliary basis: def2/J
   F. Weigend, Phys. Chem. Chem. Phys. 8, 1057 (2006).

================================================================================
                                        WARNINGS
                       Please study these warnings very carefully!
================================================================================


WARNING: Geometry Optimization
  ===> : Switching off AutoStart
         For restart on a previous wavefunction, please use MOREAD

INFO   : the flag for use of the SHARK integral package has been found!

================================================================================
                                       INPUT FILE
================================================================================
NAME = Fentanyl_OProt_184.inp
|  1> ! wB97X-D3BJ TightOpt Freq def2-TZVP def2/J RIJCOSX TightSCF defgrid3 CHELPG
|  2> %maxcore 3400
|  3> 
|  4> %pal nprocs 8 
|  5> end
|  6> 
|  7> %chelpg
|  8> grid 0.1
|  9> rmax 3.0
| 10> end
| 11> 
| 12> *xyz 1 1
| 13> O         2.4630292735     1.7470262634    -1.4511564797
| 14> N        -1.4227379380     1.3828259229     1.0095436651
| 15> N         1.5103588620     0.7081175859     0.2883204318
| 16> C         1.1906803203     2.0243948502     0.8778004238
| 17> C         0.2207175158     2.8229247723    -0.0165786938
| 18> C         0.6169740234     1.9122498608     2.2869616119
| 19> C        -1.2221237689     2.7211304254     0.4865769946
| 20> C        -0.7986812093     1.3102548495     2.3208102460
| 21> C        -2.8119457732     0.9549614726     1.0601543859
| 22> C        -3.4322252109     0.7379867963    -0.3289208680
| 23> C         1.2737843916    -0.5049585171     1.0204536421
| 24> C         2.1183180261     0.6319354776    -0.8567639837
| 25> C        -2.6417768526    -0.2382247231    -1.1502319627
| 26> C         2.4271574522    -0.6898976497    -1.4828229180
| 27> C         2.2109205528    -0.9142270555     1.9606989763
| 28> C         0.1450318874    -1.2651587787     0.7631470021
| 29> C         3.2230062580    -0.5870635279    -2.7813772987
| 30> C        -2.8177375434    -1.6077433126    -0.9781534743
| 31> C        -1.7079553123     0.1998867947    -2.0815515352
| 32> C         2.0000790580    -2.0911927779     2.6590331412
| 33> C        -0.0520997144    -2.4428354209     1.4642694779
| 34> C         0.8714211275    -2.8557288210     2.4104877046
| 35> C        -2.0708483036    -2.5159945065    -1.7078710589
| 36> C        -0.9584533184    -0.7068347882    -2.8125862035
| 37> C        -1.1327340309    -2.0679992747    -2.6236733598
| 38> H         2.1458703074     2.5620602610     0.9246777397
| 39> H         0.2642208684     2.4473825821    -1.0366357379
| 40> H         0.5311413914     3.8669089556    -0.0357085226
| 41> H         0.5889351781     2.9303886245     2.6777157720
| 42> H         1.2794665410     1.3380909555     2.9334222454
| 43> H        -1.4216776633     3.4872438910     1.2531415190
| 44> H        -1.9012635940     2.9063490004    -0.3433873403
| 45> H        -0.7664438785     0.2628471885     2.6280312804
| 46> H        -1.3939631987     1.8561519240     3.0736407176
| 47> H        -2.8286693693     0.0046102375     1.6009364379
| 48> H        -3.4348754574     1.6727218191     1.6195177533
| 49> H        -3.5160102469     1.6869541491    -0.8592684900
| 50> H        -4.4426104419     0.3556791542    -0.1751223672
| 51> H         1.4758976580    -1.2003995462    -1.6696634490
| 52> H         2.9692768302    -1.3038244053    -0.7585383193
| 53> H         3.0940142999    -0.3201495099     2.1442491215
| 54> H        -0.5797428459    -0.9162269777     0.0486036168
| 55> H         3.4157453830    -1.5883272080    -3.1561356651
| 56> H         4.1906959464    -0.1113903463    -2.6262839079
| 57> H         2.6681523907    -0.0588834644    -3.5559130707
| 58> H        -3.5554753227    -1.9623415628    -0.2733461081
| 59> H        -1.5822071182     1.2589990175    -2.2530595553
| 60> H         2.7202083935    -2.4093479062     3.3961402038
| 61> H        -0.9328476062    -3.0331518885     1.2675570851
| 62> H         0.7132611651    -3.7720040417     2.9568321589
| 63> H        -2.2272813178    -3.5754405800    -1.5729107920
| 64> H        -0.2556592656    -0.3497752795    -3.5531088475
| 65> H        -0.5587019419    -2.7764065729    -3.2022939681
| 66> H         2.9282479822     1.5869103451    -2.2913627012
| 67> *
| 68> 
| 69> 
| 70>                          ****END OF INPUT****
================================================================================

                       *****************************
                       * Geometry Optimization Run *
                       *****************************

Geometry optimization settings:
Update method            Update   .... BFGS
Choice of coordinates    CoordSys .... Z-matrix Internals
Initial Hessian          InHess   .... Almoef's Model

Convergence Tolerances:
Energy Change            TolE     ....  1.0000e-06 Eh
Max. Gradient            TolMAXG  ....  1.0000e-04 Eh/bohr
RMS Gradient             TolRMSG  ....  3.0000e-05 Eh/bohr
Max. Displacement        TolMAXD  ....  1.0000e-03 bohr
RMS Displacement         TolRMSD  ....  6.0000e-04 bohr
Strict Convergence                ....  False
------------------------------------------------------------------------------
                        ORCA OPTIMIZATION COORDINATE SETUP
------------------------------------------------------------------------------

The optimization will be done in new redundant internal coordinates
Making redundant internal coordinates   ...  (new redundants) done
Evaluating the initial hessian          ...  (Almloef) done
Evaluating the coordinates              ...  done
Calculating the B-matrix                .... done
Calculating the G-matrix                .... done
Diagonalizing the G-matrix              .... done
Small eigenvalue found = 1.978e-03
Small eigenvalue found = 5.215e-03
Small eigenvalue found = 6.365e-03
Small eigenvalue found = 1.015e-02
Small eigenvalue found = 1.282e-02
Small eigenvalue found = 2.284e-02
Small eigenvalue found = 2.555e-02
The first mode is                       ....  150
The number of degrees of freedom        ....  156

    -----------------------------------------------------------------
                    Redundant Internal Coordinates


    -----------------------------------------------------------------
         Definition                    Initial Value    Approx d2E/dq
    -----------------------------------------------------------------
      1. B(C   3,N   2)                  1.4772         0.406138   
      2. B(C   4,C   3)                  1.5422         0.357197   
      3. B(C   5,C   3)                  1.5256         0.379664   
      4. B(C   6,C   4)                  1.5314         0.371599   
      5. B(C   6,N   1)                  1.4508         0.447595   
      6. B(C   7,N   1)                  1.4540         0.442342   
      7. B(C   7,C   5)                  1.5387         0.361813   
      8. B(C   8,N   1)                  1.4545         0.441563   
      9. B(C   9,C   8)                  1.5367         0.364532   
     10. B(C  10,N   2)                  1.4365         0.471719   
     11. B(C  11,N   2)                  1.2987         0.782582   
     12. B(C  11,O   0)                  1.3098         0.751349   
     13. B(C  12,C   9)                  1.5008         0.415902   
     14. B(C  13,C  11)                  1.4948         0.425068   
     15. B(C  14,C  10)                  1.3892         0.626710   
     16. B(C  15,C  10)                  1.3850         0.636406   
     17. B(C  16,C  13)                  1.5265         0.378413   
     18. B(C  17,C  12)                  1.3915         0.621460   
     19. B(C  18,C  12)                  1.3897         0.625440   
     20. B(C  19,C  14)                  1.3847         0.637098   
     21. B(C  20,C  15)                  1.3847         0.637113   
     22. B(C  21,C  20)                  1.3852         0.635978   
     23. B(C  21,C  19)                  1.3857         0.634749   
     24. B(C  22,C  17)                  1.3839         0.638894   
     25. B(C  23,C  18)                  1.3850         0.636308   
     26. B(C  24,C  23)                  1.3852         0.635868   
     27. B(C  24,C  22)                  1.3854         0.635344   
     28. B(H  25,C   3)                  1.0971         0.350805   
     29. B(H  26,C   4)                  1.0879         0.362941   
     30. B(H  27,C   4)                  1.0893         0.360992   
     31. B(H  28,C   5)                  1.0909         0.358900   
     32. B(H  29,C   5)                  1.0893         0.361093   
     33. B(H  30,C   6)                  1.1020         0.344588   
     34. B(H  31,C   6)                  1.0883         0.362368   
     35. B(H  32,C   7)                  1.0920         0.357450   
     36. B(H  33,C   7)                  1.1041         0.341876   
     37. B(H  34,C   8)                  1.0936         0.355410   
     38. B(H  35,C   8)                  1.1028         0.343593   
     39. B(H  36,C   9)                  1.0903         0.359659   
     40. B(H  37,C   9)                  1.0912         0.358532   
     41. B(H  38,C  13)                  1.0956         0.352722   
     42. B(H  39,C  13)                  1.0933         0.355711   
     43. B(H  40,C  14)                  1.0800         0.373528   
     44. B(H  41,C  17)                  2.5575         0.001641   
     45. B(H  41,C  15)                  1.0759         0.379203   
     46. B(H  42,C  16)                  1.0863         0.364983   
     47. B(H  43,C  16)                  1.0894         0.360925   
     48. B(H  44,C  16)                  1.0894         0.360925   
     49. B(H  45,C  17)                  1.0802         0.373352   
     50. B(H  46,C  18)                  1.0803         0.373228   
     51. B(H  47,C  19)                  1.0785         0.375656   
     52. B(H  48,C  20)                  1.0784         0.375816   
     53. B(H  49,C  21)                  1.0785         0.375700   
     54. B(H  50,C  22)                  1.0794         0.374394   
     55. B(H  51,H  38)                  2.6961         0.000189   
     56. B(H  51,C  23)                  1.0816         0.371432   
     57. B(H  52,C  24)                  1.0799         0.373730   
     58. B(H  53,O   0)                  0.9737         0.494509   
     59. A(C  11,O   0,H  53)          112.1698         0.379296   
     60. A(C   7,N   1,C   8)          111.3382         0.380189   
     61. A(C   6,N   1,C   8)          114.5808         0.380968   
     62. A(C   6,N   1,C   7)          108.1662         0.381084   
     63. A(C   3,N   2,C  11)          120.3585         0.414113   
     64. A(C  10,N   2,C  11)          118.4854         0.425317   
     65. A(C   3,N   2,C  10)          120.8927         0.378918   
     66. A(C   4,C   3,C   5)          109.7075         0.361577   
     67. A(N   2,C   3,H  25)          105.3855         0.325436   
     68. A(N   2,C   3,C   4)          111.4723         0.363491   
     69. A(N   2,C   3,C   5)          112.6104         0.367307   
     70. A(C   5,C   3,H  25)          108.9028         0.323788   
     71. A(C   4,C   3,H  25)          108.5789         0.320568   
     72. A(C   3,C   4,C   6)          111.5679         0.360256   
     73. A(C   3,C   4,H  27)          109.0981         0.322074   
     74. A(C   6,C   4,H  26)          108.8325         0.324455   
     75. A(H  26,C   4,H  27)          107.6367         0.291312   
     76. A(C   6,C   4,H  27)          109.7523         0.324168   
     77. A(C   3,C   4,H  26)          109.8704         0.322358   
     78. A(C   3,C   5,H  29)          110.9911         0.325329   
     79. A(H  28,C   5,H  29)          107.1576         0.290813   
     80. A(C   3,C   5,C   7)          113.2696         0.362371   
     81. A(C   3,C   5,H  28)          105.7782         0.325003   
     82. A(C   7,C   5,H  29)          109.8945         0.322767   
     83. A(C   7,C   5,H  28)          109.4880         0.322445   
     84. A(C   4,C   6,H  31)          109.0300         0.324371   
     85. A(C   4,C   6,H  30)          110.6675         0.321706   
     86. A(N   1,C   6,H  30)          111.4394         0.329718   
     87. A(N   1,C   6,C   4)          108.0609         0.372118   
     88. A(H  30,C   6,H  31)          107.4082         0.289122   
     89. A(N   1,C   6,H  31)          110.2190         0.332475   
     90. A(H  32,C   7,H  33)          107.3562         0.288148   
     91. A(N   1,C   7,H  33)          111.0277         0.328647   
     92. A(C   5,C   7,H  33)          108.5173         0.319891   
     93. A(C   5,C   7,H  32)          110.7495         0.322231   
     94. A(N   1,C   7,H  32)          108.3161         0.331076   
     95. A(N   1,C   7,C   5)          110.8246         0.369662   
     96. A(C   9,C   8,H  35)          108.8083         0.320545   
     97. A(N   1,C   8,H  35)          111.4512         0.328823   
     98. A(C   9,C   8,H  34)          108.5502         0.322324   
     99. A(N   1,C   8,H  34)          106.7058         0.330666   
    100. A(N   1,C   8,C   9)          113.3045         0.370026   
    101. A(H  34,C   8,H  35)          107.8278         0.288115   
    102. A(C   8,C   9,H  37)          107.2069         0.322786   
    103. A(H  36,C   9,H  37)          107.5981         0.290584   
    104. A(C  12,C   9,H  37)          109.6896         0.329867   
    105. A(C   8,C   9,C  12)          111.9586         0.368543   
    106. A(C  12,C   9,H  36)          109.9022         0.330039   
    107. A(C   8,C   9,H  36)          110.3538         0.322952   
    108. A(C  14,C  10,C  15)          120.9193         0.436959   
    109. A(N   2,C  10,C  15)          120.2018         0.412603   
    110. A(N   2,C  10,C  14)          118.8589         0.411481   
    111. A(O   0,C  11,N   2)          118.2545         0.462684   
    112. A(N   2,C  11,C  13)          121.1886         0.420208   
    113. A(O   0,C  11,C  13)          120.5560         0.417169   
    114. A(C  17,C  12,C  18)          118.5634         0.434933   
    115. A(C   9,C  12,C  18)          121.0370         0.404874   
    116. A(C   9,C  12,C  17)          120.3931         0.404418   
    117. A(C  11,C  13,C  16)          113.8546         0.372312   
    118. A(H  38,C  13,H  39)          106.3698         0.289339   
    119. A(C  16,C  13,H  39)          110.0507         0.324351   
    120. A(C  11,C  13,H  39)          108.7551         0.330626   
    121. A(C  16,C  13,H  38)          109.8145         0.323902   
    122. A(C  11,C  13,H  38)          107.7013         0.330165   
    123. A(C  10,C  14,C  19)          119.2779         0.437044   
    124. A(C  19,C  14,H  40)          120.4196         0.356748   
    125. A(C  10,C  14,H  40)          120.3025         0.355754   
    126. A(C  10,C  15,C  20)          119.2608         0.438257   
    127. A(C  20,C  15,H  41)          121.0772         0.357665   
    128. A(C  10,C  15,H  41)          119.6284         0.357598   
    129. A(H  43,C  16,H  44)          109.9959         0.291049   
    130. A(H  42,C  16,H  44)          106.9760         0.291561   
    131. A(C  13,C  16,H  44)          111.8354         0.325127   
    132. A(H  42,C  16,H  43)          107.0954         0.291561   
    133. A(C  13,C  16,H  43)          111.8035         0.325127   
    134. A(C  13,C  16,H  42)          108.8972         0.325726   
    135. A(C  12,C  17,C  22)          120.8293         0.436604   
    136. A(C  22,C  17,H  45)          119.8153         0.356891   
    137. A(C  12,C  17,H  45)          119.3517         0.355218   
    138. A(C  23,C  18,H  46)          119.6734         0.356625   
    139. A(C  12,C  18,H  46)          119.5840         0.355583   
    140. A(C  12,C  18,C  23)          120.7273         0.436787   
    141. A(C  14,C  19,C  21)          120.1674         0.438050   
    142. A(C  21,C  19,H  47)          120.2444         0.356869   
    143. A(C  14,C  19,H  47)          119.5882         0.357093   
    144. A(C  15,C  20,C  21)          120.2971         0.438204   
    145. A(C  21,C  20,H  48)          120.3958         0.357012   
    146. A(C  15,C  20,H  48)          119.3069         0.357120   
    147. A(C  19,C  21,C  20)          120.0735         0.437911   
    148. A(C  20,C  21,H  49)          120.1018         0.356993   
    149. A(C  19,C  21,H  49)          119.8246         0.356876   
    150. A(C  24,C  22,H  50)          119.8784         0.356722   
    151. A(C  17,C  22,H  50)          120.0007         0.357060   
    152. A(C  17,C  22,C  24)          120.1166         0.438346   
    153. A(C  24,C  23,H  51)          119.9687         0.356291   
    154. A(C  18,C  23,H  51)          119.7944         0.356333   
    155. A(C  18,C  23,C  24)          120.2136         0.438091   
    156. A(C  23,C  24,H  52)          120.3086         0.356664   
    157. A(C  22,C  24,H  52)          120.1321         0.356614   
    158. A(C  22,C  24,C  23)          119.5435         0.437971   
    159. D(C   4,C   3,N   2,C  11)     62.4387         0.014075   
    160. D(C   4,C   3,N   2,C  10)   -123.5465         0.014075   
    161. D(H  25,C   3,N   2,C  10)    118.8507         0.014075   
    162. D(C   5,C   3,N   2,C  11)   -173.7569         0.014075   
    163. D(H  25,C   3,N   2,C  11)    -55.1640         0.014075   
    164. D(C   5,C   3,N   2,C  10)      0.2579         0.014075   
    165. D(C   6,C   4,C   3,N   2)     99.3899         0.010248   
    166. D(H  27,C   4,C   3,N   2)   -139.1820         0.010248   
    167. D(H  27,C   4,C   3,C   5)     95.3858         0.010248   
    168. D(C   6,C   4,C   3,H  25)   -144.9526         0.010248   
    169. D(H  26,C   4,C   3,H  25)     94.2544         0.010248   
    170. D(H  26,C   4,C   3,C   5)   -146.8353         0.010248   
    171. D(H  26,C   4,C   3,N   2)    -21.4031         0.010248   
    172. D(H  27,C   4,C   3,H  25)    -23.5245         0.010248   
    173. D(C   6,C   4,C   3,C   5)    -26.0423         0.010248   
    174. D(H  29,C   5,C   3,N   2)     54.3614         0.011489   
    175. D(H  28,C   5,C   3,H  25)     53.7457         0.011489   
    176. D(H  28,C   5,C   3,C   4)    -64.9648         0.011489   
    177. D(C   7,C   5,C   3,H  25)    173.6717         0.011489   
    178. D(H  29,C   5,C   3,H  25)    -62.1514         0.011489   
    179. D(C   7,C   5,C   3,C   4)     54.9611         0.011489   
    180. D(H  29,C   5,C   3,C   4)    179.1381         0.011489   
    181. D(C   7,C   5,C   3,N   2)    -69.8155         0.011489   
    182. D(H  28,C   5,C   3,N   2)    170.2585         0.011489   
    183. D(H  31,C   6,N   1,C   8)    -38.9968         0.017088   
    184. D(H  31,C   6,N   1,C   7)   -163.8323         0.017088   
    185. D(H  30,C   6,N   1,C   8)     80.1570         0.017088   
    186. D(H  30,C   6,N   1,C   7)    -44.6786         0.017088   
    187. D(C   4,C   6,N   1,C   8)   -158.0476         0.017088   
    188. D(N   1,C   6,C   4,C   3)    -36.1778         0.011033   
    189. D(C   4,C   6,N   1,C   7)     77.1169         0.017088   
    190. D(H  31,C   6,C   4,H  26)    -34.5829         0.011033   
    191. D(H  31,C   6,C   4,C   3)   -155.9803         0.011033   
    192. D(H  30,C   6,C   4,H  27)    -34.9553         0.011033   
    193. D(H  30,C   6,C   4,H  26)   -152.5102         0.011033   
    194. D(H  30,C   6,C   4,C   3)     86.0925         0.011033   
    195. D(N   1,C   6,C   4,H  27)   -157.2256         0.011033   
    196. D(H  31,C   6,C   4,H  27)     82.9719         0.011033   
    197. D(N   1,C   6,C   4,H  26)     85.2195         0.011033   
    198. D(H  33,C   7,C   5,H  29)     94.8760         0.010495   
    199. D(H  33,C   7,C   5,H  28)    -22.5663         0.010495   
    200. D(H  33,C   7,C   5,C   3)   -140.3518         0.010495   
    201. D(H  32,C   7,C   5,H  29)    -22.7249         0.010495   
    202. D(H  32,C   7,C   5,H  28)   -140.1672         0.010495   
    203. D(H  32,C   7,C   5,C   3)    102.0474         0.010495   
    204. D(N   1,C   7,C   5,H  29)   -142.9664         0.010495   
    205. D(N   1,C   7,C   5,H  28)     99.5914         0.010495   
    206. D(N   1,C   7,C   5,C   3)    -18.1941         0.010495   
    207. D(H  33,C   7,N   1,C   8)    -52.9538         0.016686   
    208. D(H  33,C   7,N   1,C   6)     73.7876         0.016686   
    209. D(H  32,C   7,N   1,C   8)     64.6855         0.016686   
    210. D(H  32,C   7,N   1,C   6)   -168.5732         0.016686   
    211. D(C   5,C   7,N   1,C   8)   -173.6340         0.016686   
    212. D(C   5,C   7,N   1,C   6)    -46.8927         0.016686   
    213. D(H  35,C   8,N   1,C   7)     68.6526         0.016627   
    214. D(H  35,C   8,N   1,C   6)    -54.4934         0.016627   
    215. D(H  34,C   8,N   1,C   7)    -48.8227         0.016627   
    216. D(H  34,C   8,N   1,C   6)   -171.9687         0.016627   
    217. D(C   9,C   8,N   1,C   7)   -168.2252         0.016627   
    218. D(C   9,C   8,N   1,C   6)     68.6288         0.016627   
    219. D(C  12,C   9,C   8,H  35)   -179.6255         0.010643   
    220. D(C  12,C   9,C   8,H  34)    -62.5320         0.010643   
    221. D(C  12,C   9,C   8,N   1)     55.8075         0.010643   
    222. D(H  37,C   9,C   8,H  35)    -59.2835         0.010643   
    223. D(H  37,C   9,C   8,H  34)     57.8100         0.010643   
    224. D(H  37,C   9,C   8,N   1)    176.1495         0.010643   
    225. D(H  36,C   9,C   8,H  35)     57.6186         0.010643   
    226. D(H  36,C   9,C   8,H  34)    174.7121         0.010643   
    227. D(H  36,C   9,C   8,N   1)    -66.9484         0.010643   
    228. D(C  15,C  10,N   2,C  11)    -85.8929         0.017542   
    229. D(C  15,C  10,N   2,C   3)     99.9826         0.017542   
    230. D(C  14,C  10,N   2,C  11)     92.4944         0.017542   
    231. D(C  14,C  10,N   2,C   3)    -81.6301         0.017542   
    232. D(C  13,C  11,N   2,C  10)      7.0414         0.051937   
    233. D(C  13,C  11,N   2,C   3)   -178.8016         0.051937   
    234. D(O   0,C  11,N   2,C  10)   -172.6129         0.051937   
    235. D(O   0,C  11,N   2,C   3)      1.5441         0.051937   
    236. D(C  13,C  11,O   0,H  53)     -0.8766         0.042892   
    237. D(N   2,C  11,O   0,H  53)    178.7799         0.042892   
    238. D(C  18,C  12,C   9,H  37)    144.0869         0.012798   
    239. D(C  18,C  12,C   9,H  36)     25.9835         0.012798   
    240. D(C  18,C  12,C   9,C   8)    -97.0284         0.012798   
    241. D(C  17,C  12,C   9,H  37)    -36.8573         0.012798   
    242. D(C  17,C  12,C   9,H  36)   -154.9607         0.012798   
    243. D(C  17,C  12,C   9,C   8)     82.0274         0.012798   
    244. D(H  39,C  13,C  11,N   2)    -53.1728         0.013352   
    245. D(H  39,C  13,C  11,O   0)    126.4735         0.013352   
    246. D(H  38,C  13,C  11,N   2)     61.7127         0.013352   
    247. D(H  38,C  13,C  11,O   0)   -118.6409         0.013352   
    248. D(C  16,C  13,C  11,N   2)   -176.2689         0.013352   
    249. D(C  16,C  13,C  11,O   0)      3.3775         0.013352   
    250. D(H  40,C  14,C  10,C  15)    179.2031         0.027214   
    251. D(H  40,C  14,C  10,N   2)      0.8278         0.027214   
    252. D(C  19,C  14,C  10,C  15)     -0.7961         0.027214   
    253. D(C  19,C  14,C  10,N   2)   -179.1714         0.027214   
    254. D(H  41,C  15,C  10,C  14)    178.4625         0.028119   
    255. D(H  41,C  15,C  10,N   2)     -3.1839         0.028119   
    256. D(C  20,C  15,C  10,C  14)      0.5502         0.028119   
    257. D(C  20,C  15,C  10,N   2)    178.9037         0.028119   
    258. D(H  44,C  16,C  13,H  39)    174.7036         0.011418   
    259. D(H  44,C  16,C  13,C  11)    -62.9100         0.011418   
    260. D(H  43,C  16,C  13,H  39)    -61.4439         0.011418   
    261. D(H  43,C  16,C  13,H  38)   -178.2134         0.011418   
    262. D(H  43,C  16,C  13,C  11)     60.9425         0.011418   
    263. D(H  42,C  16,C  13,H  39)     56.6940         0.011418   
    264. D(H  44,C  16,C  13,H  38)     57.9340         0.011418   
    265. D(H  42,C  16,C  13,H  38)    -60.0756         0.011418   
    266. D(H  42,C  16,C  13,C  11)    179.0804         0.011418   
    267. D(H  45,C  17,C  12,C  18)   -178.6679         0.029050   
    268. D(H  45,C  17,C  12,C   9)      2.2532         0.029050   
    269. D(C  22,C  17,C  12,C  18)      0.6314         0.029050   
    270. D(C  22,C  17,C  12,C   9)   -178.4475         0.029050   
    271. D(H  46,C  18,C  12,C  17)    177.8957         0.027097   
    272. D(H  46,C  18,C  12,C   9)     -3.0316         0.027097   
    273. D(C  23,C  18,C  12,C  17)     -0.6741         0.027097   
    274. D(C  23,C  18,C  12,C   9)    178.3986         0.027097   
    275. D(H  47,C  19,C  14,H  40)      0.5190         0.028184   
    276. D(H  47,C  19,C  14,C  10)   -179.4819         0.028184   
    277. D(C  21,C  19,C  14,H  40)   -179.3990         0.028184   
    278. D(C  21,C  19,C  14,C  10)      0.6001         0.028184   
    279. D(H  48,C  20,C  15,H  41)      1.8568         0.028185   
    280. D(H  48,C  20,C  15,C  10)    179.7380         0.028185   
    281. D(C  21,C  20,C  15,H  41)   -177.9892         0.028185   
    282. D(C  21,C  20,C  15,C  10)     -0.1080         0.028185   
    283. D(H  49,C  21,C  19,C  14)    179.9333         0.027963   
    284. D(C  20,C  21,C  19,H  47)    179.9132         0.027963   
    285. D(C  20,C  21,C  19,C  14)     -0.1693         0.027963   
    286. D(H  49,C  21,C  20,H  48)     -0.0273         0.028078   
    287. D(H  49,C  21,C  20,C  15)    179.8170         0.028078   
    288. D(C  19,C  21,C  20,H  48)   -179.9244         0.028078   
    289. D(C  19,C  21,C  20,C  15)     -0.0801         0.028078   
    290. D(H  49,C  21,C  19,H  47)      0.0158         0.027963   
    291. D(H  50,C  22,C  17,H  45)      0.0854         0.030820   
    292. D(H  50,C  22,C  17,C  12)   -179.2106         0.030820   
    293. D(C  24,C  22,C  17,H  45)    179.3271         0.030820   
    294. D(C  24,C  22,C  17,C  12)      0.0310         0.030820   
    295. D(H  51,C  23,C  18,H  46)     -0.2706         0.028109   
    296. D(H  51,C  23,C  18,C  12)    178.2980         0.028109   
    297. D(C  24,C  23,C  18,H  46)   -178.5129         0.028109   
    298. D(C  24,C  23,C  18,C  12)      0.0556         0.028109   
    299. D(H  52,C  24,C  23,H  51)      0.9352         0.028068   
    300. D(H  52,C  24,C  23,C  18)    179.1745         0.028068   
    301. D(C  22,C  24,C  23,H  51)   -177.6226         0.028068   
    302. D(C  22,C  24,C  23,C  18)      0.6167         0.028068   
    303. D(H  52,C  24,C  22,H  50)      0.0231         0.028019   
    304. D(H  52,C  24,C  22,C  17)   -179.2195         0.028019   
    305. D(C  23,C  24,C  22,H  50)    178.5835         0.028019   
    306. D(C  23,C  24,C  22,C  17)     -0.6591         0.028019   
    -----------------------------------------------------------------

Number of atoms                         .... 54
Number of degrees of freedom            .... 306

         *************************************************************
         *                GEOMETRY OPTIMIZATION CYCLE   1            *
         *************************************************************
---------------------------------
CARTESIAN COORDINATES (ANGSTROEM)
---------------------------------
  O      2.463029    1.747026   -1.451156
  N     -1.422738    1.382826    1.009544
  N      1.510359    0.708118    0.288320
  C      1.190680    2.024395    0.877800
  C      0.220718    2.822925   -0.016579
  C      0.616974    1.912250    2.286962
  C     -1.222124    2.721130    0.486577
  C     -0.798681    1.310255    2.320810
  C     -2.811946    0.954961    1.060154
  C     -3.432225    0.737987   -0.328921
  C      1.273784   -0.504959    1.020454
  C      2.118318    0.631935   -0.856764
  C     -2.641777   -0.238225   -1.150232
  C      2.427157   -0.689898   -1.482823
  C      2.210921   -0.914227    1.960699
  C      0.145032   -1.265159    0.763147
  C      3.223006   -0.587064   -2.781377
  C     -2.817738   -1.607743   -0.978153
  C     -1.707955    0.199887   -2.081552
  C      2.000079   -2.091193    2.659033
  C     -0.052100   -2.442835    1.464269
  C      0.871421   -2.855729    2.410488
  C     -2.070848   -2.515995   -1.707871
  C     -0.958453   -0.706835   -2.812586
  C     -1.132734   -2.067999   -2.623673
  H      2.145870    2.562060    0.924678
  H      0.264221    2.447383   -1.036636
  H      0.531141    3.866909   -0.035709
  H      0.588935    2.930389    2.677716
  H      1.279467    1.338091    2.933422
  H     -1.421678    3.487244    1.253142
  H     -1.901264    2.906349   -0.343387
  H     -0.766444    0.262847    2.628031
  H     -1.393963    1.856152    3.073641
  H     -2.828669    0.004610    1.600936
  H     -3.434875    1.672722    1.619518
  H     -3.516010    1.686954   -0.859268
  H     -4.442610    0.355679   -0.175122
  H      1.475898   -1.200400   -1.669663
  H      2.969277   -1.303824   -0.758538
  H      3.094014   -0.320150    2.144249
  H     -0.579743   -0.916227    0.048604
  H      3.415745   -1.588327   -3.156136
  H      4.190696   -0.111390   -2.626284
  H      2.668152   -0.058883   -3.555913
  H     -3.555475   -1.962342   -0.273346
  H     -1.582207    1.258999   -2.253060
  H      2.720208   -2.409348    3.396140
  H     -0.932848   -3.033152    1.267557
  H      0.713261   -3.772004    2.956832
  H     -2.227281   -3.575441   -1.572911
  H     -0.255659   -0.349775   -3.553109
  H     -0.558702   -2.776407   -3.202294
  H      2.928248    1.586910   -2.291363

----------------------------
CARTESIAN COORDINATES (A.U.)
----------------------------
  NO LB      ZA    FRAG     MASS         X           Y           Z
   0 O     8.0000    0    15.999    4.654451    3.301401   -2.742288
   1 N     7.0000    0    14.007   -2.688585    2.613162    1.907761
   2 N     7.0000    0    14.007    2.854165    1.338148    0.544847
   3 C     6.0000    0    12.011    2.250060    3.825552    1.658802
   4 C     6.0000    0    12.011    0.417096    5.334555   -0.031329
   5 C     6.0000    0    12.011    1.165912    3.613629    4.321731
   6 C     6.0000    0    12.011   -2.309479    5.142191    0.919497
   7 C     6.0000    0    12.011   -1.509289    2.476023    4.385696
   8 C     6.0000    0    12.011   -5.313807    1.804616    2.003401
   9 C     6.0000    0    12.011   -6.485966    1.394593   -0.621570
  10 C     6.0000    0    12.011    2.407104   -0.954233    1.928378
  11 C     6.0000    0    12.011    4.003041    1.194185   -1.619049
  12 C     6.0000    0    12.011   -4.992235   -0.450179   -2.173623
  13 C     6.0000    0    12.011    4.586663   -1.303718   -2.802129
  14 C     6.0000    0    12.011    4.178034   -1.727639    3.705184
  15 C     6.0000    0    12.011    0.274071   -2.390804    1.442139
  16 C     6.0000    0    12.011    6.090599   -1.109389   -5.256041
  17 C     6.0000    0    12.011   -5.324752   -3.038195   -1.848442
  18 C     6.0000    0    12.011   -3.227568    0.377731   -3.933562
  19 C     6.0000    0    12.011    3.779602   -3.951782    5.024844
  20 C     6.0000    0    12.011   -0.098454   -4.616290    2.767068
  21 C     6.0000    0    12.011    1.646747   -5.396545    4.555162
  22 C     6.0000    0    12.011   -3.913336   -4.754541   -3.227409
  23 C     6.0000    0    12.011   -1.811214   -1.335724   -5.315018
  24 C     6.0000    0    12.011   -2.140557   -3.907952   -4.958024
  25 H     1.0000    0     1.008    4.055107    4.841592    1.747388
  26 H     1.0000    0     1.008    0.499305    4.624883   -1.958958
  27 H     1.0000    0     1.008    1.003712    7.307399   -0.067479
  28 H     1.0000    0     1.008    1.112926    5.537632    5.060149
  29 H     1.0000    0     1.008    2.417841    2.528625    5.543365
  30 H     1.0000    0     1.008   -2.686581    6.589936    2.368094
  31 H     1.0000    0     1.008   -3.592868    5.492204   -0.648908
  32 H     1.0000    0     1.008   -1.448369    0.496709    4.966259
  33 H     1.0000    0     1.008   -2.634209    3.507619    5.808339
  34 H     1.0000    0     1.008   -5.345410    0.008712    3.025331
  35 H     1.0000    0     1.008   -6.490974    3.160986    3.060445
  36 H     1.0000    0     1.008   -6.644296    3.187881   -1.623782
  37 H     1.0000    0     1.008   -8.395317    0.672136   -0.330933
  38 H     1.0000    0     1.008    2.789042   -2.268426   -3.155207
  39 H     1.0000    0     1.008    5.611120   -2.463871   -1.433430
  40 H     1.0000    0     1.008    5.846840   -0.604995    4.052044
  41 H     1.0000    0     1.008   -1.095555   -1.731418    0.091848
  42 H     1.0000    0     1.008    6.454823   -3.001503   -5.964232
  43 H     1.0000    0     1.008    7.919268   -0.210497   -4.962957
  44 H     1.0000    0     1.008    5.042077   -0.111274   -6.719702
  45 H     1.0000    0     1.008   -6.718875   -3.708288   -0.516549
  46 H     1.0000    0     1.008   -2.989938    2.379163   -4.257666
  47 H     1.0000    0     1.008    5.140449   -4.553008    6.417775
  48 H     1.0000    0     1.008   -1.762827   -5.731826    2.395336
  49 H     1.0000    0     1.008    1.347868   -7.128055    5.587603
  50 H     1.0000    0     1.008   -4.208952   -6.756604   -2.972371
  51 H     1.0000    0     1.008   -0.483126   -0.660979   -6.714403
  52 H     1.0000    0     1.008   -1.055794   -5.246648   -6.051459
  53 H     1.0000    0     1.008    5.533587    2.998826   -4.330048

--------------------------------
INTERNAL COORDINATES (ANGSTROEM)
--------------------------------
 O      0   0   0     0.000000000000     0.00000000     0.00000000
 N      1   0   0     4.613770032480     0.00000000     0.00000000
 N      1   2   0     2.238904213845    35.96618039     0.00000000
 C      3   1   2     1.477249764767    89.34937536   304.65396435
 C      4   3   1     1.542203580790   111.47227241    63.23440088
 C      4   3   1     1.525598462177   112.61039600   187.03878098
 C      2   1   3     1.450792585006    67.57154152   147.55666744
 C      2   1   3     1.454005986066    97.09097038    40.78592160
 C      2   1   3     1.454485421815   147.79981976   248.45507869
 C      9   2   1     1.536669987989   113.30449810   342.12296895
 C      3   1   2     1.436502749506   149.08196824   136.02706176
 C      3   1   2     1.298705654665    31.01835084   123.32155955
 C     10   9   2     1.500782946340   111.95864666    55.80748774
 C     12   3   1     1.494849288978   121.18862933   179.65428439
 C     11   3   1     1.389167451979   118.85886590    85.08557479
 C     11   3   1     1.384988577737   120.20179289   266.69830216
 C     14  12   3     1.526497185695   113.85457491   183.73111515
 C     13  10   9     1.391457630639   120.39312624    82.02740446
 C     13  10   9     1.389719582246   121.03696402   262.97161172
 C     15  11   3     1.384692403930   119.27787208   180.82864157
 C     16  11   3     1.384686198416   119.26075335   178.90374791
 C     21  16  11     1.385171699758   120.29710963   359.89202464
 C     18  13  10     1.383926125566   120.82934818   181.55252472
 C     19  13  10     1.385030307976   120.72728051   178.39861808
 C     24  19  13     1.385218606781   120.21357301     0.05559057
 H      4   3   1     1.097118721093   105.38550080   305.63162949
 H      5   4   3     1.087860676523   109.87035624   338.59690713
 H      5   4   3     1.089326355081   109.09813584   220.81799300
 H      6   4   3     1.090908581243   105.77816300   170.25850950
 H      6   4   3     1.089250262831   110.99110534    54.36143753
 H      7   2   1     1.101985829769   111.43943063   225.02828183
 H      7   2   1     1.088291146600   110.21900269   105.87455564
 H      8   2   1     1.092010447659   108.31611973   260.09176969
 H      8   2   1     1.104136758659   111.02767107   142.45252120
 H      9   2   1     1.093568642787   106.70577799   101.52548488
 H      9   2   1     1.102773178516   111.45118738   219.00075974
 H     10   9   2     1.090333696214   110.35383336   293.05162628
 H     10   9   2     1.091188080525   107.20688576   176.14952424
 H     14  12   3     1.095635325469   107.70134698    61.71272151
 H     14  12   3     1.093337853163   108.75514570   306.82716310
 H     15  11   3     1.080033958798   120.30252029     0.82777697
 H     16  11   3     1.075929396036   119.62841897   356.81611857
 H     17  14  12     1.086333816366   108.89721308   179.08036352
 H     17  14  12     1.089377009395   111.80348272    60.94253131
 H     17  14  12     1.089377187040   111.83536135   297.08997200
 H     18  13  10     1.080162197775   119.35168818     2.25324012
 H     19  13  10     1.080252891578   119.58397466   356.96839996
 H     20  15  11     1.078487722344   119.58816449   180.51814945
 H     21  16  11     1.078371988838   119.30688484   179.73802652
 H     22  21  16     1.078455894564   120.10181538   179.81700047
 H     23  18  13     1.079403327875   120.00066050   180.78935010
 H     24  19  13     1.081565883190   119.79435629   178.29795408
 H     25  24  19     1.079886821706   120.30864363   179.17449971
 H      1   2   3     0.973659103005   148.17560211   110.75614691

---------------------------
INTERNAL COORDINATES (A.U.)
---------------------------
 O      0   0   0     0.000000000000     0.00000000     0.00000000
 N      1   0   0     8.718761806280     0.00000000     0.00000000
 N      1   2   0     4.230915804250    35.96618039     0.00000000
 C      3   1   2     2.791597486810    89.34937536   304.65396435
 C      4   3   1     2.914342410446   111.47227241    63.23440088
 C      4   3   1     2.882963283846   112.61039600   187.03878098
 C      2   1   3     2.741600662786    67.57154152   147.55666744
 C      2   1   3     2.747673110747    97.09097038    40.78592160
 C      2   1   3     2.748579113011   147.79981976   248.45507869
 C      9   2   1     2.903885435515   113.30449810   342.12296895
 C      3   1   2     2.714596787192   149.08196824   136.02706176
 C      3   1   2     2.454198015892    31.01835084   123.32155955
 C     10   9   2     2.836068755043   111.95864666    55.80748774
 C     12   3   1     2.824855767656   121.18862933   179.65428439
 C     11   3   1     2.625146038397   118.85886590    85.08557479
 C     11   3   1     2.617249110532   120.20179289   266.69830216
 C     14  12   3     2.884661625165   113.85457491   183.73111515
 C     13  10   9     2.629473848862   120.39312624    82.02740446
 C     13  10   9     2.626189413393   121.03696402   262.97161172
 C     15  11   3     2.616689423148   119.27787208   180.82864157
 C     16  11   3     2.616677696427   119.26075335   178.90374791
 C     21  16  11     2.617595161000   120.29710963   359.89202464
 C     18  13  10     2.615241366899   120.82934818   181.55252472
 C     19  13  10     2.617327969256   120.72728051   178.39861808
 C     24  19  13     2.617683802429   120.21357301     0.05559057
 H      4   3   1     2.073253919264   105.38550080   305.63162949
 H      5   4   3     2.055758750491   109.87035624   338.59690713
 H      5   4   3     2.058528481565   109.09813584   220.81799300
 H      6   4   3     2.061518455694   105.77816300   170.25850950
 H      6   4   3     2.058384688052   110.99110534    54.36143753
 H      7   2   1     2.082451421726   111.43943063   225.02828183
 H      7   2   1     2.056572221045   110.21900269   105.87455564
 H      8   2   1     2.063600681456   108.31611973   260.09176969
 H      8   2   1     2.086516088260   111.02767107   142.45252120
 H      9   2   1     2.066545243512   106.70577799   101.52548488
 H      9   2   1     2.083939295229   111.45118738   219.00075974
 H     10   9   2     2.060432080430   110.35383336   293.05162628
 H     10   9   2     2.062046632791   107.20688576   176.14952424
 H     14  12   3     2.070450707786   107.70134698    61.71272151
 H     14  12   3     2.066109114327   108.75514570   306.82716310
 H     15  11   3     2.040968397462   120.30252029     0.82777697
 H     16  11   3     2.033211897944   119.62841897   356.81611857
 H     17  14  12     2.052873402949   108.89721308   179.08036352
 H     17  14  12     2.058624204347   111.80348272    60.94253131
 H     17  14  12     2.058624540048   111.83536135   297.08997200
 H     18  13  10     2.041210734008   119.35168818     2.25324012
 H     19  13  10     2.041382120459   119.58397466   356.96839996
 H     20  15  11     2.038046434026   119.58816449   180.51814945
 H     21  16  11     2.037827729396   119.30688484   179.73802652
 H     22  21  16     2.037986288239   120.10181538   179.81700047
 H     23  18  13     2.039776677727   120.00066050   180.78935010
 H     24  19  13     2.043863315022   119.79435629   178.29795408
 H     25  24  19     2.040690348655   120.30864363   179.17449971
 H      1   2   3     1.839949052479   148.17560211   110.75614691

---------------------
BASIS SET INFORMATION
---------------------
There are 4 groups of distinct atoms

 Group   1 Type O   : 11s6p2d1f contracted to 5s3p2d1f pattern {62111/411/11/1}
 Group   2 Type N   : 11s6p2d1f contracted to 5s3p2d1f pattern {62111/411/11/1}
 Group   3 Type C   : 11s6p2d1f contracted to 5s3p2d1f pattern {62111/411/11/1}
 Group   4 Type H   : 5s1p contracted to 3s1p pattern {311/1}

Atom   0O    basis set group =>   1
Atom   1N    basis set group =>   2
Atom   2N    basis set group =>   2
Atom   3C    basis set group =>   3
Atom   4C    basis set group =>   3
Atom   5C    basis set group =>   3
Atom   6C    basis set group =>   3
Atom   7C    basis set group =>   3
Atom   8C    basis set group =>   3
Atom   9C    basis set group =>   3
Atom  10C    basis set group =>   3
Atom  11C    basis set group =>   3
Atom  12C    basis set group =>   3
Atom  13C    basis set group =>   3
Atom  14C    basis set group =>   3
Atom  15C    basis set group =>   3
Atom  16C    basis set group =>   3
Atom  17C    basis set group =>   3
Atom  18C    basis set group =>   3
Atom  19C    basis set group =>   3
Atom  20C    basis set group =>   3
Atom  21C    basis set group =>   3
Atom  22C    basis set group =>   3
Atom  23C    basis set group =>   3
Atom  24C    basis set group =>   3
Atom  25H    basis set group =>   4
Atom  26H    basis set group =>   4
Atom  27H    basis set group =>   4
Atom  28H    basis set group =>   4
Atom  29H    basis set group =>   4
Atom  30H    basis set group =>   4
Atom  31H    basis set group =>   4
Atom  32H    basis set group =>   4
Atom  33H    basis set group =>   4
Atom  34H    basis set group =>   4
Atom  35H    basis set group =>   4
Atom  36H    basis set group =>   4
Atom  37H    basis set group =>   4
Atom  38H    basis set group =>   4
Atom  39H    basis set group =>   4
Atom  40H    basis set group =>   4
Atom  41H    basis set group =>   4
Atom  42H    basis set group =>   4
Atom  43H    basis set group =>   4
Atom  44H    basis set group =>   4
Atom  45H    basis set group =>   4
Atom  46H    basis set group =>   4
Atom  47H    basis set group =>   4
Atom  48H    basis set group =>   4
Atom  49H    basis set group =>   4
Atom  50H    basis set group =>   4
Atom  51H    basis set group =>   4
Atom  52H    basis set group =>   4
Atom  53H    basis set group =>   4
---------------------------------
AUXILIARY/J BASIS SET INFORMATION
---------------------------------
There are 4 groups of distinct atoms

 Group   1 Type O   : 12s5p4d2f1g contracted to 6s4p3d1f1g pattern {711111/2111/211/2/1}
 Group   2 Type N   : 12s5p4d2f1g contracted to 6s4p3d1f1g pattern {711111/2111/211/2/1}
 Group   3 Type C   : 12s5p4d2f1g contracted to 6s4p3d1f1g pattern {711111/2111/211/2/1}
 Group   4 Type H   : 5s2p1d contracted to 3s1p1d pattern {311/2/1}

Atom   0O    basis set group =>   1
Atom   1N    basis set group =>   2
Atom   2N    basis set group =>   2
Atom   3C    basis set group =>   3
Atom   4C    basis set group =>   3
Atom   5C    basis set group =>   3
Atom   6C    basis set group =>   3
Atom   7C    basis set group =>   3
Atom   8C    basis set group =>   3
Atom   9C    basis set group =>   3
Atom  10C    basis set group =>   3
Atom  11C    basis set group =>   3
Atom  12C    basis set group =>   3
Atom  13C    basis set group =>   3
Atom  14C    basis set group =>   3
Atom  15C    basis set group =>   3
Atom  16C    basis set group =>   3
Atom  17C    basis set group =>   3
Atom  18C    basis set group =>   3
Atom  19C    basis set group =>   3
Atom  20C    basis set group =>   3
Atom  21C    basis set group =>   3
Atom  22C    basis set group =>   3
Atom  23C    basis set group =>   3
Atom  24C    basis set group =>   3
Atom  25H    basis set group =>   4
Atom  26H    basis set group =>   4
Atom  27H    basis set group =>   4
Atom  28H    basis set group =>   4
Atom  29H    basis set group =>   4
Atom  30H    basis set group =>   4
Atom  31H    basis set group =>   4
Atom  32H    basis set group =>   4
Atom  33H    basis set group =>   4
Atom  34H    basis set group =>   4
Atom  35H    basis set group =>   4
Atom  36H    basis set group =>   4
Atom  37H    basis set group =>   4
Atom  38H    basis set group =>   4
Atom  39H    basis set group =>   4
Atom  40H    basis set group =>   4
Atom  41H    basis set group =>   4
Atom  42H    basis set group =>   4
Atom  43H    basis set group =>   4
Atom  44H    basis set group =>   4
Atom  45H    basis set group =>   4
Atom  46H    basis set group =>   4
Atom  47H    basis set group =>   4
Atom  48H    basis set group =>   4
Atom  49H    basis set group =>   4
Atom  50H    basis set group =>   4
Atom  51H    basis set group =>   4
Atom  52H    basis set group =>   4
Atom  53H    basis set group =>   4


           ************************************************************
           *        Program running with 8 parallel MPI-processes     *
           *              working on a common directory               *
           ************************************************************
------------------------------------------------------------------------------
                           ORCA GTO INTEGRAL CALCULATION
                           -- RI-GTO INTEGRALS CHOSEN --
------------------------------------------------------------------------------
------------------------------------------------------------------------------
                   ___                                                        
                  /   \      - P O W E R E D   B Y -                         
                 /     \                                                     
                 |  |  |   _    _      __       _____    __    __             
                 |  |  |  | |  | |    /  \     |  _  \  |  |  /  |          
                  \  \/   | |  | |   /    \    | | | |  |  | /  /          
                 / \  \   | |__| |  /  /\  \   | |_| |  |  |/  /          
                |  |  |   |  __  | /  /__\  \  |    /   |      \           
                |  |  |   | |  | | |   __   |  |    \   |  |\   \          
                \     /   | |  | | |  |  |  |  | |\  \  |  | \   \       
                 \___/    |_|  |_| |__|  |__|  |_| \__\ |__|  \__/        
                                                                              
                      - O R C A' S   B I G   F R I E N D -                    
                                      &                                       
                       - I N T E G R A L  F E E D E R -                       
                                                                              
 v1 FN, 2020, v2 2021                                                         
------------------------------------------------------------------------------


Reading SHARK input file Fentanyl_OProt_184.SHARKINP.tmp ... ok
----------------------
SHARK INTEGRAL PACKAGE
----------------------

Number of atoms                             ...     54
Number of basis functions                   ...    949
Number of shells                            ...    391
Maximum angular momentum                    ...      3
Integral batch strategy                     ... SHARK/LIBINT Hybrid
RI-J (if used) integral strategy            ... SPLIT-RIJ (Revised 2003 algorithm where possible)
Printlevel                                  ...      1
Contraction scheme used                     ... SEGMENTED contraction
Coulomb Range Separation                    ... NOT USED
Exchange Range Separation                   ... Long Range
   Mu parameter                             ...  0.300000
   Scaling (regular/separated)              ...  0.167000  0.833000
Finite Nucleus Model                        ... NOT USED
Auxiliary Coulomb fitting basis             ... AVAILABLE
   # of basis functions in Aux-J            ...   1544
   # of shells in Aux-J                     ...    520
   Maximum angular momentum in Aux-J        ...      4
Auxiliary J/K fitting basis                 ... NOT available
Auxiliary Correlation fitting basis         ... NOT available
Auxiliary 'external' fitting basis          ... NOT available
Integral threshold                          ...     2.500000e-11
Primitive cut-off                           ...     2.500000e-12
Primitive pair pre-selection threshold      ...     2.500000e-12

Calculating pre-screening integrals         ... done (  0.1 sec) Dimension = 391
Organizing shell pair data                  ... done (  0.7 sec)
Shell pair information
Total number of shell pairs                 ...     76636
Shell pairs after pre-screening             ...     58719
Total number of primitive shell pairs       ...    228112
Primitive shell pairs kept                  ...    115500
          la=0 lb=0:  16773 shell pairs
          la=1 lb=0:  17199 shell pairs
          la=1 lb=1:   4480 shell pairs
          la=2 lb=0:   8095 shell pairs
          la=2 lb=1:   4206 shell pairs
          la=2 lb=2:   1039 shell pairs
          la=3 lb=0:   3727 shell pairs
          la=3 lb=1:   2000 shell pairs
          la=3 lb=2:    965 shell pairs
          la=3 lb=3:    235 shell pairs

Calculating one electron integrals          ... done (  0.1 sec)
Calculating RI/J V-Matrix + Cholesky decomp.... done (  0.3 sec)
Calculating Nuclear repulsion               ... done (  0.0 sec) ENN=   2425.464097405087 Eh

SHARK setup successfully completed in   2.3 seconds

Maximum memory used throughout the entire GTOINT-calculation: 83.8 MB
[1703434110.641258] [gra302:19931:0]          mpool.c:42   UCX  WARN  object 0xbcdbbc0 was not returned to mpool ucp_requests
[1703434110.641301] [gra302:19931:0]          mpool.c:42   UCX  WARN  object 0xbcdbd80 was not returned to mpool ucp_requests
[1703434110.641315] [gra302:19931:0]          mpool.c:42   UCX  WARN  object 0xbcdbf40 was not returned to mpool ucp_requests
[1703434110.641328] [gra302:19931:0]          mpool.c:42   UCX  WARN  object 0xbcdc100 was not returned to mpool ucp_requests
[1703434110.641339] [gra302:19931:0]          mpool.c:42   UCX  WARN  object 0xbcdc2c0 was not returned to mpool ucp_requests
[1703434110.641371] [gra302:19931:0]          mpool.c:42   UCX  WARN  object 0xbcdc480 was not returned to mpool ucp_requests
[1703434110.641383] [gra302:19931:0]          mpool.c:42   UCX  WARN  object 0xbcdc640 was not returned to mpool ucp_requests
[1703434110.641394] [gra302:19931:0]          mpool.c:42   UCX  WARN  object 0xbcdc800 was not returned to mpool ucp_requests
[1703434110.641406] [gra302:19931:0]          mpool.c:42   UCX  WARN  object 0xbcdc9c0 was not returned to mpool ucp_requests
[1703434110.641417] [gra302:19931:0]          mpool.c:42   UCX  WARN  object 0xbcdcb80 was not returned to mpool ucp_requests
[1703434110.641428] [gra302:19931:0]          mpool.c:42   UCX  WARN  object 0xbcdcd40 was not returned to mpool ucp_requests
[1703434110.641439] [gra302:19931:0]          mpool.c:42   UCX  WARN  object 0xbcdcf00 was not returned to mpool ucp_requests
[1703434110.716783] [gra302:19927:0]          mpool.c:42   UCX  WARN  object 0xaa4ae80 was not returned to mpool ucp_requests
[1703434110.716824] [gra302:19927:0]          mpool.c:42   UCX  WARN  object 0xaa4b040 was not returned to mpool ucp_requests
[1703434110.716838] [gra302:19927:0]          mpool.c:42   UCX  WARN  object 0xaa4b200 was not returned to mpool ucp_requests
[1703434110.716857] [gra302:19927:0]          mpool.c:42   UCX  WARN  object 0xaa4b3c0 was not returned to mpool ucp_requests
[1703434110.716869] [gra302:19927:0]          mpool.c:42   UCX  WARN  object 0xaa4b580 was not returned to mpool ucp_requests
[1703434110.716881] [gra302:19927:0]          mpool.c:42   UCX  WARN  object 0xaa4b740 was not returned to mpool ucp_requests
[1703434110.716892] [gra302:19927:0]          mpool.c:42   UCX  WARN  object 0xaa4b900 was not returned to mpool ucp_requests
[1703434110.716903] [gra302:19927:0]          mpool.c:42   UCX  WARN  object 0xaa4bac0 was not returned to mpool ucp_requests
[1703434110.716914] [gra302:19927:0]          mpool.c:42   UCX  WARN  object 0xaa4bc80 was not returned to mpool ucp_requests
[1703434110.716924] [gra302:19927:0]          mpool.c:42   UCX  WARN  object 0xaa4be40 was not returned to mpool ucp_requests
[1703434110.716935] [gra302:19927:0]          mpool.c:42   UCX  WARN  object 0xaa4c000 was not returned to mpool ucp_requests
[1703434110.716946] [gra302:19927:0]          mpool.c:42   UCX  WARN  object 0xaa4c1c0 was not returned to mpool ucp_requests
[1703434110.717062] [gra302:19926:0]          mpool.c:42   UCX  WARN  object 0xaa1f080 was not returned to mpool ucp_requests
[1703434110.717094] [gra302:19926:0]          mpool.c:42   UCX  WARN  object 0xaa1f240 was not returned to mpool ucp_requests
[1703434110.717108] [gra302:19926:0]          mpool.c:42   UCX  WARN  object 0xaa1f400 was not returned to mpool ucp_requests
[1703434110.717119] [gra302:19926:0]          mpool.c:42   UCX  WARN  object 0xaa1f5c0 was not returned to mpool ucp_requests
[1703434110.717129] [gra302:19926:0]          mpool.c:42   UCX  WARN  object 0xaa1f780 was not returned to mpool ucp_requests
[1703434110.717139] [gra302:19926:0]          mpool.c:42   UCX  WARN  object 0xaa1f940 was not returned to mpool ucp_requests
[1703434110.717156] [gra302:19926:0]          mpool.c:42   UCX  WARN  object 0xaa1fb00 was not returned to mpool ucp_requests
[1703434110.717171] [gra302:19926:0]          mpool.c:42   UCX  WARN  object 0xaa1fcc0 was not returned to mpool ucp_requests
[1703434110.717181] [gra302:19926:0]          mpool.c:42   UCX  WARN  object 0xaa1fe80 was not returned to mpool ucp_requests
[1703434110.717219] [gra302:19930:0]          mpool.c:42   UCX  WARN  object 0xbddfcc0 was not returned to mpool ucp_requests
[1703434110.717251] [gra302:19930:0]          mpool.c:42   UCX  WARN  object 0xbddfe80 was not returned to mpool ucp_requests
[1703434110.717265] [gra302:19930:0]          mpool.c:42   UCX  WARN  object 0xbde0040 was not returned to mpool ucp_requests
[1703434110.717277] [gra302:19930:0]          mpool.c:42   UCX  WARN  object 0xbde0200 was not returned to mpool ucp_requests
[1703434110.717294] [gra302:19930:0]          mpool.c:42   UCX  WARN  object 0xbde03c0 was not returned to mpool ucp_requests
[1703434110.717309] [gra302:19930:0]          mpool.c:42   UCX  WARN  object 0xbde0580 was not returned to mpool ucp_requests
[1703434110.717330] [gra302:19930:0]          mpool.c:42   UCX  WARN  object 0xbde0740 was not returned to mpool ucp_requests
[1703434110.717340] [gra302:19930:0]          mpool.c:42   UCX  WARN  object 0xbde0900 was not returned to mpool ucp_requests
[1703434110.717350] [gra302:19930:0]          mpool.c:42   UCX  WARN  object 0xbde0ac0 was not returned to mpool ucp_requests
[1703434110.717373] [gra302:19930:0]          mpool.c:42   UCX  WARN  object 0xbde0c80 was not returned to mpool ucp_requests
[1703434110.717384] [gra302:19930:0]          mpool.c:42   UCX  WARN  object 0xbde0e40 was not returned to mpool ucp_requests
[1703434110.717395] [gra302:19930:0]          mpool.c:42   UCX  WARN  object 0xbde1000 was not returned to mpool ucp_requests
[1703434110.717789] [gra302:19929:0]          mpool.c:42   UCX  WARN  object 0xb7a9e80 was not returned to mpool ucp_requests
[1703434110.717830] [gra302:19929:0]          mpool.c:42   UCX  WARN  object 0xb7aa040 was not returned to mpool ucp_requests
[1703434110.717850] [gra302:19929:0]          mpool.c:42   UCX  WARN  object 0xb7aa200 was not returned to mpool ucp_requests
[1703434110.717864] [gra302:19929:0]          mpool.c:42   UCX  WARN  object 0xb7aa3c0 was not returned to mpool ucp_requests
[1703434110.717876] [gra302:19929:0]          mpool.c:42   UCX  WARN  object 0xb7aa580 was not returned to mpool ucp_requests
[1703434110.717892] [gra302:19929:0]          mpool.c:42   UCX  WARN  object 0xb7aa740 was not returned to mpool ucp_requests
[1703434110.717911] [gra302:19929:0]          mpool.c:42   UCX  WARN  object 0xb7aa900 was not returned to mpool ucp_requests
[1703434110.717923] [gra302:19929:0]          mpool.c:42   UCX  WARN  object 0xb7aaac0 was not returned to mpool ucp_requests
[1703434110.717935] [gra302:19929:0]          mpool.c:42   UCX  WARN  object 0xb7aac80 was not returned to mpool ucp_requests
[1703434110.717952] [gra302:19929:0]          mpool.c:42   UCX  WARN  object 0xb7aae40 was not returned to mpool ucp_requests
[1703434110.717970] [gra302:19929:0]          mpool.c:42   UCX  WARN  object 0xb7ab000 was not returned to mpool ucp_requests
[1703434110.717982] [gra302:19929:0]          mpool.c:42   UCX  WARN  object 0xb7ab1c0 was not returned to mpool ucp_requests
[1703434110.718062] [gra302:19932:0]          mpool.c:42   UCX  WARN  object 0xc0dee80 was not returned to mpool ucp_requests
[1703434110.718097] [gra302:19932:0]          mpool.c:42   UCX  WARN  object 0xc0df040 was not returned to mpool ucp_requests
[1703434110.718116] [gra302:19932:0]          mpool.c:42   UCX  WARN  object 0xc0df200 was not returned to mpool ucp_requests
[1703434110.718128] [gra302:19932:0]          mpool.c:42   UCX  WARN  object 0xc0df3c0 was not returned to mpool ucp_requests
[1703434110.718139] [gra302:19932:0]          mpool.c:42   UCX  WARN  object 0xc0df580 was not returned to mpool ucp_requests
[1703434110.718151] [gra302:19932:0]          mpool.c:42   UCX  WARN  object 0xc0df740 was not returned to mpool ucp_requests
[1703434110.718167] [gra302:19932:0]          mpool.c:42   UCX  WARN  object 0xc0df900 was not returned to mpool ucp_requests
[1703434110.718178] [gra302:19932:0]          mpool.c:42   UCX  WARN  object 0xc0dfac0 was not returned to mpool ucp_requests
[1703434110.718190] [gra302:19932:0]          mpool.c:42   UCX  WARN  object 0xc0dfc80 was not returned to mpool ucp_requests
[1703434110.718201] [gra302:19932:0]          mpool.c:42   UCX  WARN  object 0xc0dfe40 was not returned to mpool ucp_requests
[1703434110.718217] [gra302:19932:0]          mpool.c:42   UCX  WARN  object 0xc0e0000 was not returned to mpool ucp_requests
[1703434110.718228] [gra302:19932:0]          mpool.c:42   UCX  WARN  object 0xc0e01c0 was not returned to mpool ucp_requests
[1703434110.723774] [gra302:19928:0]          mpool.c:42   UCX  WARN  object 0xa9a5e00 was not returned to mpool ucp_requests
[1703434110.723800] [gra302:19928:0]          mpool.c:42   UCX  WARN  object 0xa9a5fc0 was not returned to mpool ucp_requests
[1703434110.723810] [gra302:19928:0]          mpool.c:42   UCX  WARN  object 0xa9a6180 was not returned to mpool ucp_requests
[1703434110.723818] [gra302:19928:0]          mpool.c:42   UCX  WARN  object 0xa9a6340 was not returned to mpool ucp_requests
[1703434110.723826] [gra302:19928:0]          mpool.c:42   UCX  WARN  object 0xa9a6500 was not returned to mpool ucp_requests
[1703434110.723849] [gra302:19928:0]          mpool.c:42   UCX  WARN  object 0xa9a66c0 was not returned to mpool ucp_requests
[1703434110.723856] [gra302:19928:0]          mpool.c:42   UCX  WARN  object 0xa9a6880 was not returned to mpool ucp_requests
[1703434110.723863] [gra302:19928:0]          mpool.c:42   UCX  WARN  object 0xa9a6a40 was not returned to mpool ucp_requests
[1703434110.723883] [gra302:19928:0]          mpool.c:42   UCX  WARN  object 0xa9a6c00 was not returned to mpool ucp_requests
[1703434110.723890] [gra302:19928:0]          mpool.c:42   UCX  WARN  object 0xa9a6dc0 was not returned to mpool ucp_requests
[1703434110.723897] [gra302:19928:0]          mpool.c:42   UCX  WARN  object 0xa9a6f80 was not returned to mpool ucp_requests
[1703434110.723904] [gra302:19928:0]          mpool.c:42   UCX  WARN  object 0xa9a7140 was not returned to mpool ucp_requests


           ************************************************************
           *        Program running with 8 parallel MPI-processes     *
           *              working on a common directory               *
           ************************************************************
-------------------------------------------------------------------------------
                                 ORCA SCF
-------------------------------------------------------------------------------

------------
SCF SETTINGS
------------
Hamiltonian:
 Density Functional     Method          .... DFT(GTOs)
 Exchange Functional    Exchange        .... WB97X-V
 Correlation Functional Correlation     .... WB97X-V
 Gradients option       PostSCFGGA      .... off
 Hybrid DFT is turned on
   Fraction HF Exchange ScalHFX         ....  0.167000
   Scaling of DF-GGA-X  ScalDFX         ....  0.000000
   Scaling of DF-GGA-C  ScalDFC         ....  1.000000
   Scaling of DF-LDA-C  ScalLDAC        ....  1.000000
   Perturbative correction              ....  0.000000
   Density functional embedding theory  .... OFF
 Long-range corrected/Screened/Range-Separated Hybrid DFT is turned on
   Amount of maximum screened exact exchange              ....  0.833000
   Range separation parameter mu (erf(mu*r12)/r12)        ....  0.300000
 RI-approximation to the Coulomb term is turned on
   Number of AuxJ basis functions       .... 1544
   RIJ-COSX (HFX calculated with COS-X)).... on


General Settings:
 Integral files         IntName         .... Fentanyl_OProt_184
 Hartree-Fock type      HFTyp           .... RHF
 Total Charge           Charge          ....    1
 Multiplicity           Mult            ....    1
 Number of Electrons    NEL             ....  182
 Basis Dimension        Dim             ....  949
 Nuclear Repulsion      ENuc            ....   2425.4640974051 Eh

Convergence Acceleration:
 DIIS                   CNVDIIS         .... on
   Start iteration      DIISMaxIt       ....    12
   Startup error        DIISStart       ....  0.200000
   # of expansion vecs  DIISMaxEq       ....     5
   Bias factor          DIISBfac        ....   1.050
   Max. coefficient     DIISMaxC        ....  10.000
 Trust-Rad. Augm. Hess. CNVTRAH         .... auto
   Auto Start mean grad. ratio tolernc. ....  1.125000
   Auto Start start iteration           ....    20
   Auto Start num. interpolation iter.  ....    10
   Max. Number of Micro iterations      ....    16
   Max. Number of Macro iterations      .... Maxiter - #DIIS iter
   Number of Davidson start vectors     ....     2
   Converg. threshold I  (grad. norm)   ....   1.000e-05
   Converg. threshold II (energy diff.) ....   1.000e-08
   Grad. Scal. Fac. for Micro threshold ....   0.100
   Minimum threshold for Micro iter.    ....   0.010
   NR start threshold (gradient norm)   ....   0.001
   Initial trust radius                 ....   0.400
   Minimum AH scaling param. (alpha)    ....   1.000
   Maximum AH scaling param. (alpha)    .... 1000.000
   Orbital update algorithm             .... Taylor
   White noise on init. David. guess    .... on
   Maximum white noise                  ....   0.010
   Quad. conv. algorithm                .... NR
 SOSCF                  CNVSOSCF        .... on
   Start iteration      SOSCFMaxIt      ....   150
   Startup grad/error   SOSCFStart      ....  0.003300
 Level Shifting         CNVShift        .... on
   Level shift para.    LevelShift      ....    0.2500
   Turn off err/grad.   ShiftErr        ....    0.0010
 Zerner damping         CNVZerner       .... off
 Static damping         CNVDamp         .... on
   Fraction old density DampFac         ....    0.7000
   Max. Damping (<1)    DampMax         ....    0.9800
   Min. Damping (>=0)   DampMin         ....    0.0000
   Turn off err/grad.   DampErr         ....    0.1000
 Fernandez-Rico         CNVRico         .... off

SCF Procedure:
 Maximum # iterations   MaxIter         ....   125
 SCF integral mode      SCFMode         .... Direct
   Integral package                     .... SHARK and LIBINT hybrid scheme
 Reset frequency        DirectResetFreq ....    20
 Integral Threshold     Thresh          ....  2.500e-11 Eh
 Primitive CutOff       TCut            ....  2.500e-12 Eh

Convergence Tolerance:
 Convergence Check Mode ConvCheckMode   .... Total+1el-Energy
 Convergence forced     ConvForced      .... 0
 Energy Change          TolE            ....  1.000e-08 Eh
 1-El. energy change                    ....  1.000e-05 Eh
 Orbital Gradient       TolG            ....  1.000e-05
 Orbital Rotation angle TolX            ....  1.000e-05
 DIIS Error             TolErr          ....  5.000e-07


Diagonalization of the overlap matrix:
Smallest eigenvalue                        ... 4.538e-06
Time for diagonalization                   ...    0.291 sec
Threshold for overlap eigenvalues          ... 1.000e-08
Number of eigenvalues below threshold      ... 0
Time for construction of square roots      ...    0.159 sec
Total time needed                          ...    0.460 sec

Time for model grid setup =    0.537 sec

------------------------------
INITIAL GUESS: MODEL POTENTIAL
------------------------------
Loading Hartree-Fock densities                     ... done
Calculating cut-offs                               ... done
Initializing the effective Hamiltonian             ... done
Setting up the integral package (SHARK)            ... done
Starting the Coulomb interaction                   ... done (   1.5 sec)
Reading the grid                                   ... done
Mapping shells                                     ... done
Starting the XC term evaluation                    ... done (   0.7 sec)
  promolecular density results
     # of electrons  =    182.977079859
     EX              =    -95.416020310
     EC              =     -7.519956190
     EX+EC           =   -102.935976500
Transforming the Hamiltonian                       ... done (   0.1 sec)
Diagonalizing the Hamiltonian                      ... done (   0.2 sec)
Back transforming the eigenvectors                 ... done (   0.1 sec)
Now organizing SCF variables                       ... done
                      ------------------
                      INITIAL GUESS DONE (   3.2 sec)
                      ------------------
-------------------
DFT GRID GENERATION
-------------------

General Integration Accuracy     IntAcc      ... 4.959
Radial Grid Type                 RadialGrid  ... OptM3 with GC (2021)
Angular Grid (max. ang.)         AngularGrid ... 6 (Lebedev-590)
Angular grid pruning method      GridPruning ... 4 (adaptive)
Weight generation scheme         WeightScheme... Becke
Basis function cutoff            BFCut       ... 1.0000e-11
Integration weight cutoff        WCut        ... 1.0000e-14
Angular grids for H and He will be reduced by one unit
Partially contracted basis set               ... off
Rotationally invariant grid construction     ... off

Total number of grid points                  ...   592343
Total number of batches                      ...     9285
Average number of points per batch           ...       63
Average number of grid points per atom       ...    10969
Time for grid setup =    8.572 sec

--------------------
COSX GRID GENERATION
--------------------

GRIDX 1
-------
General Integration Accuracy     IntAcc      ... 4.020
Radial Grid Type                 RadialGrid  ... OptM3 with GC (2021)
Angular Grid (max. ang.)         AngularGrid ... 2 (Lebedev-110)
Angular grid pruning method      GridPruning ... 4 (adaptive)
Weight generation scheme         WeightScheme... Becke
Basis function cutoff            BFCut       ... 1.0000e-11
Integration weight cutoff        WCut        ... 1.0000e-14
Angular grids for H and He will be reduced by one unit
Partially contracted basis set               ... on
Rotationally invariant grid construction     ... off

Total number of grid points                  ...    63689
Total number of batches                      ...     1019
Average number of points per batch           ...       62
Average number of grid points per atom       ...     1179
UseSFitting                                  ... on

GRIDX 2
-------
General Integration Accuracy     IntAcc      ... 4.338
Radial Grid Type                 RadialGrid  ... OptM3 with GC (2021)
Angular Grid (max. ang.)         AngularGrid ... 3 (Lebedev-194)
Angular grid pruning method      GridPruning ... 4 (adaptive)
Weight generation scheme         WeightScheme... Becke
Basis function cutoff            BFCut       ... 1.0000e-11
Integration weight cutoff        WCut        ... 1.0000e-14
Angular grids for H and He will be reduced by one unit
Partially contracted basis set               ... on
Rotationally invariant grid construction     ... off

Total number of grid points                  ...   138017
Total number of batches                      ...     2184
Average number of points per batch           ...       63
Average number of grid points per atom       ...     2556
UseSFitting                                  ... on

GRIDX 3
-------
General Integration Accuracy     IntAcc      ... 4.871
Radial Grid Type                 RadialGrid  ... OptM3 with GC (2021)
Angular Grid (max. ang.)         AngularGrid ... 4 (Lebedev-302)
Angular grid pruning method      GridPruning ... 4 (adaptive)
Weight generation scheme         WeightScheme... Becke
Basis function cutoff            BFCut       ... 1.0000e-11
Integration weight cutoff        WCut        ... 1.0000e-14
[...]
 71:   1039.04   0.000282    1.43  0.000085  (-0.008389 -0.000328 -0.003786)
 72:   1039.64   0.000190    0.96  0.000057  (-0.007410  0.001368 -0.000499)
 73:   1045.74   0.000052    0.26  0.000015  (-0.000151 -0.003890 -0.000465)
 74:   1055.93   0.000824    4.16  0.000244  (-0.015089 -0.001081  0.003829)
 75:   1068.61   0.000229    1.16  0.000067  (-0.000311  0.007733 -0.002659)
 76:   1069.16   0.000821    4.15  0.000240  (-0.009774  0.010007  0.006632)
 77:   1086.70   0.000720    3.64  0.000207  ( 0.007707 -0.002312 -0.011921)
 78:   1110.39   0.000010    0.05  0.000003  (-0.000281 -0.001601 -0.000549)
 79:   1115.92   0.000323    1.63  0.000090  ( 0.001567  0.008311 -0.004333)
 80:   1117.83   0.001726    8.72  0.000482  ( 0.018342  0.005799  0.010571)
 81:   1119.06   0.000513    2.59  0.000143  (-0.009019 -0.002650 -0.007401)
 82:   1136.11   0.002302   11.63  0.000632  ( 0.014623 -0.008689 -0.018516)
 83:   1149.02   0.003660   18.49  0.000994  (-0.028673  0.012458  0.004078)
 84:   1170.00   0.002095   10.58  0.000559  ( 0.006333 -0.006099  0.021940)
 85:   1181.57   0.000500    2.53  0.000132  ( 0.006704 -0.002153  0.009079)
 86:   1186.11   0.000249    1.26  0.000065  ( 0.005922  0.005383 -0.001195)
 87:   1199.49   0.004587   23.18  0.001193  (-0.025765 -0.022874 -0.002529)
 88:   1204.52   0.000114    0.58  0.000030  (-0.003964  0.003245 -0.001807)
 89:   1211.58   0.000092    0.46  0.000024  (-0.004268 -0.000132  0.002329)
 90:   1229.50   0.008328   42.09  0.002114  (-0.027793 -0.033711  0.014315)
 91:   1236.73   0.003242   16.38  0.000818  ( 0.006836  0.016646 -0.022229)
 92:   1247.84   0.000153    0.77  0.000038  ( 0.003833  0.000612  0.004805)
 93:   1267.31   0.002872   14.51  0.000707  (-0.003533 -0.020034  0.017125)
 94:   1284.67   0.000059    0.30  0.000014  ( 0.003624 -0.000825  0.000789)
 95:   1289.89   0.006267   31.67  0.001516  (-0.009937  0.033463  0.017253)
 96:   1299.15   0.004926   24.89  0.001183  ( 0.003269  0.030851 -0.014859)
 97:   1308.61   0.000278    1.40  0.000066  ( 0.006909  0.001125  0.004152)
 98:   1316.56   0.000894    4.52  0.000212  ( 0.006327  0.012915  0.002228)
 99:   1317.83   0.001188    6.00  0.000281  (-0.010765  0.009944 -0.008156)
100:   1326.51   0.000639    3.23  0.000150  ( 0.000869 -0.008095  0.009165)
101:   1337.31   0.000744    3.76  0.000174  ( 0.010677  0.003637 -0.006807)
102:   1352.55   0.002562   12.95  0.000591  (-0.008006  0.017972  0.014287)
103:   1360.66   0.000610    3.08  0.000140  ( 0.004336  0.007679  0.007886)
104:   1370.15   0.000241    1.22  0.000055  (-0.002845  0.002774 -0.006260)
105:   1375.46   0.001671    8.45  0.000379  ( 0.003944 -0.018917 -0.002401)
106:   1386.28   0.000920    4.65  0.000207  ( 0.009761 -0.006805  0.008094)
107:   1390.33   0.000458    2.31  0.000103  (-0.006295  0.007933  0.000495)
108:   1404.82   0.003535   17.86  0.000785  ( 0.020981  0.016449  0.008631)
109:   1407.27   0.000768    3.88  0.000170  ( 0.001269  0.011160 -0.006640)
110:   1424.06   0.002709   13.69  0.000594  ( 0.019628  0.003832  0.013918)
111:   1424.69   0.005232   26.44  0.001146  ( 0.002338 -0.032697  0.008449)
112:   1432.62   0.009535   48.19  0.002077  (-0.027525 -0.014200  0.033433)
113:   1450.72   0.014716   74.37  0.003165  ( 0.013387  0.048590 -0.025004)
114:   1454.19   0.000227    1.15  0.000049  (-0.002030 -0.006495 -0.001580)
115:   1482.51   0.016717   84.48  0.003519  (-0.024125 -0.048390  0.024398)
116:   1488.95   0.000886    4.48  0.000186  ( 0.004724  0.005129  0.011704)
117:   1500.99   0.001476    7.46  0.000307  (-0.007350 -0.009289 -0.012907)
118:   1504.05   0.001759    8.89  0.000365  ( 0.010527 -0.004343  0.015339)
119:   1506.55   0.001996   10.09  0.000413  (-0.013984 -0.014623  0.002009)
120:   1510.07   0.000580    2.93  0.000120  ( 0.002813  0.006647 -0.008227)
121:   1511.70   0.003315   16.75  0.000684  ( 0.015116 -0.000217  0.021349)
122:   1517.11   0.003935   19.89  0.000809  ( 0.016747 -0.019923  0.011491)
123:   1519.92   0.003178   16.06  0.000653  ( 0.009961  0.022375  0.007261)
124:   1525.66   0.001229    6.21  0.000251  ( 0.000751 -0.014242  0.006934)
125:   1540.45   0.004025   20.34  0.000815  ( 0.019443 -0.013083 -0.016315)
126:   1551.34   0.005672   28.67  0.001141  ( 0.000724  0.029949 -0.015608)
127:   1554.79   0.002165   10.94  0.000434  ( 0.007306 -0.012818 -0.014722)
128:   1668.61   0.000129    0.65  0.000024  (-0.000405  0.004788 -0.000985)
129:   1680.16   0.000190    0.96  0.000035  ( 0.005309  0.001641  0.002095)
130:   1682.28   0.003295   16.65  0.000611  (-0.016705 -0.002124  0.018100)
131:   1691.86   0.000931    4.71  0.000172  (-0.002956  0.010301  0.007545)
132:   1729.62   0.053706  271.41  0.009690  (-0.052514  0.004663  0.083129)
133:   2979.29   0.004490   22.69  0.000470  ( 0.004640  0.020157  0.006518)
134:   2981.11   0.002861   14.46  0.000299  (-0.001105  0.011012 -0.013303)
135:   2985.65   0.031550  159.44  0.003298  (-0.032338  0.028943  0.037605)
136:   3057.17   0.001522    7.69  0.000155  (-0.003542 -0.009581  0.007141)
137:   3081.61   0.001162    5.87  0.000118  (-0.002923 -0.009446  0.004461)
138:   3090.09   0.004698   23.74  0.000474  ( 0.015921 -0.014797  0.001412)
139:   3095.02   0.001448    7.32  0.000146  (-0.002749 -0.010757 -0.004766)
140:   3095.68   0.001071    5.41  0.000108  ( 0.002870  0.004053  0.009128)
141:   3097.70   0.001848    9.34  0.000186  (-0.000954 -0.006417  0.012004)
142:   3116.17   0.001387    7.01  0.000139  (-0.006123  0.009551 -0.003188)
143:   3118.73   0.004321   21.84  0.000432  ( 0.011680  0.016963 -0.002868)
144:   3120.01   0.002159   10.91  0.000216  (-0.013812  0.000668 -0.004975)
145:   3129.05   0.002199   11.11  0.000219  (-0.007233 -0.012498  0.003281)
146:   3141.70   0.000004    0.02  0.000000  (-0.000347 -0.000114 -0.000505)
147:   3151.87   0.003618   18.28  0.000358  (-0.008878  0.015061 -0.007250)
148:   3153.89   0.001876    9.48  0.000186  (-0.007510  0.007074 -0.008898)
149:   3162.93   0.003931   19.87  0.000388  (-0.004463 -0.008943 -0.016970)
150:   3165.92   0.000167    0.84  0.000016  ( 0.000197 -0.004048 -0.000071)
151:   3182.70   0.001019    5.15  0.000100  ( 0.007357 -0.001354 -0.006634)
152:   3188.77   0.000275    1.39  0.000027  ( 0.003362  0.000448 -0.003929)
153:   3202.58   0.001356    6.85  0.000132  ( 0.002710 -0.010818 -0.002790)
154:   3205.36   0.000214    1.08  0.000021  ( 0.001211  0.004280 -0.001039)
155:   3207.71   0.003089   15.61  0.000300  (-0.008561 -0.011994  0.009129)
156:   3214.21   0.000292    1.48  0.000028  ( 0.001083 -0.003876  0.003484)
157:   3220.94   0.000864    4.37  0.000084  ( 0.003172 -0.006838 -0.005183)
158:   3226.06   0.000700    3.54  0.000068  ( 0.006792  0.002880  0.003639)
159:   3234.47   0.000293    1.48  0.000028  (-0.001354 -0.004505  0.002477)
160:   3276.18   0.005675   28.68  0.000541  ( 0.017917  0.001416  0.014748)
161:   3786.62   0.049028  247.77  0.004041  ( 0.035743  0.000144 -0.052564)

* The epsilon (eps) is given for a Dirac delta lineshape.
** The dipole moment derivative (T) already includes vibrational overlap.

The first frequency considered to be a vibration is 6
The total number of vibrations considered is 156


--------------------------
THERMOCHEMISTRY AT 298.15K
--------------------------

Temperature         ... 298.15 K
Pressure            ... 1.00 atm
Total Mass          ... 337.49 AMU

Throughout the following assumptions are being made:
  (1) The electronic state is orbitally nondegenerate
  (2) There are no thermally accessible electronically excited states
  (3) Hindered rotations indicated by low frequency modes are not
      treated as such but are treated as vibrations and this may
      cause some error
  (4) All equations used are the standard statistical mechanics
      equations for an ideal gas
  (5) All vibrations are strictly harmonic

freq.      27.25  E(vib)   ...       0.55 
freq.      36.39  E(vib)   ...       0.54 
freq.      55.46  E(vib)   ...       0.52 
freq.      66.23  E(vib)   ...       0.50 
freq.      74.02  E(vib)   ...       0.49 
freq.      84.88  E(vib)   ...       0.48 
freq.      88.24  E(vib)   ...       0.48 
freq.      95.96  E(vib)   ...       0.47 
freq.     116.75  E(vib)   ...       0.44 
freq.     143.21  E(vib)   ...       0.41 
freq.     152.58  E(vib)   ...       0.40 
freq.     163.55  E(vib)   ...       0.39 
freq.     174.27  E(vib)   ...       0.38 
freq.     222.15  E(vib)   ...       0.33 
freq.     242.42  E(vib)   ...       0.31 
freq.     267.78  E(vib)   ...       0.29 
freq.     280.63  E(vib)   ...       0.28 
freq.     286.53  E(vib)   ...       0.27 
freq.     310.41  E(vib)   ...       0.26 
freq.     321.76  E(vib)   ...       0.25 
freq.     345.36  E(vib)   ...       0.23 
freq.     362.08  E(vib)   ...       0.22 
freq.     398.37  E(vib)   ...       0.20 
freq.     400.66  E(vib)   ...       0.19 
freq.     422.16  E(vib)   ...       0.18 
freq.     429.90  E(vib)   ...       0.18 
freq.     432.10  E(vib)   ...       0.18 
freq.     458.31  E(vib)   ...       0.16 
freq.     474.89  E(vib)   ...       0.15 
freq.     505.79  E(vib)   ...       0.14 
freq.     513.78  E(vib)   ...       0.13 
freq.     522.02  E(vib)   ...       0.13 
freq.     544.14  E(vib)   ...       0.12 
freq.     585.67  E(vib)   ...       0.11 
freq.     604.24  E(vib)   ...       0.10 
freq.     616.36  E(vib)   ...       0.09 
freq.     629.92  E(vib)   ...       0.09 
freq.     639.30  E(vib)   ...       0.09 
freq.     661.00  E(vib)   ...       0.08 
freq.     710.45  E(vib)   ...       0.07 
freq.     729.51  E(vib)   ...       0.06 
freq.     730.95  E(vib)   ...       0.06 
freq.     739.27  E(vib)   ...       0.06 
freq.     780.80  E(vib)   ...       0.05 
freq.     789.88  E(vib)   ...       0.05 
freq.     798.93  E(vib)   ...       0.05 
freq.     803.48  E(vib)   ...       0.05 
freq.     815.31  E(vib)   ...       0.05 
freq.     851.59  E(vib)   ...       0.04 
freq.     861.14  E(vib)   ...       0.04 
freq.     881.77  E(vib)   ...       0.04 
freq.     885.80  E(vib)   ...       0.04 
freq.     918.33  E(vib)   ...       0.03 
freq.     936.45  E(vib)   ...       0.03 
freq.     945.79  E(vib)   ...       0.03 
freq.     965.04  E(vib)   ...       0.03 
freq.     973.87  E(vib)   ...       0.03 
freq.     977.83  E(vib)   ...       0.03 
freq.    1001.50  E(vib)   ...       0.02 
freq.    1015.00  E(vib)   ...       0.02 
freq.    1016.00  E(vib)   ...       0.02 
freq.    1022.74  E(vib)   ...       0.02 
freq.    1029.80  E(vib)   ...       0.02 
freq.    1032.32  E(vib)   ...       0.02 
freq.    1036.28  E(vib)   ...       0.02 
freq.    1039.04  E(vib)   ...       0.02 
freq.    1039.64  E(vib)   ...       0.02 
freq.    1045.74  E(vib)   ...       0.02 
freq.    1055.93  E(vib)   ...       0.02 
freq.    1068.61  E(vib)   ...       0.02 
freq.    1069.16  E(vib)   ...       0.02 
freq.    1086.70  E(vib)   ...       0.02 
freq.    1110.39  E(vib)   ...       0.02 
freq.    1115.92  E(vib)   ...       0.01 
freq.    1117.83  E(vib)   ...       0.01 
freq.    1119.06  E(vib)   ...       0.01 
freq.    1136.11  E(vib)   ...       0.01 
freq.    1149.02  E(vib)   ...       0.01 
freq.    1170.00  E(vib)   ...       0.01 
freq.    1181.57  E(vib)   ...       0.01 
freq.    1186.11  E(vib)   ...       0.01 
freq.    1199.49  E(vib)   ...       0.01 
freq.    1204.52  E(vib)   ...       0.01 
freq.    1211.58  E(vib)   ...       0.01 
freq.    1229.50  E(vib)   ...       0.01 
freq.    1236.73  E(vib)   ...       0.01 
freq.    1247.84  E(vib)   ...       0.01 
freq.    1267.31  E(vib)   ...       0.01 
freq.    1284.67  E(vib)   ...       0.01 
freq.    1289.89  E(vib)   ...       0.01 
freq.    1299.15  E(vib)   ...       0.01 
freq.    1308.61  E(vib)   ...       0.01 
freq.    1316.56  E(vib)   ...       0.01 
freq.    1317.83  E(vib)   ...       0.01 
freq.    1326.51  E(vib)   ...       0.01 
freq.    1337.31  E(vib)   ...       0.01 
freq.    1352.55  E(vib)   ...       0.01 
freq.    1360.66  E(vib)   ...       0.01 
freq.    1370.15  E(vib)   ...       0.01 
freq.    1375.46  E(vib)   ...       0.01 
freq.    1386.28  E(vib)   ...       0.00 
freq.    1390.33  E(vib)   ...       0.00 
freq.    1404.82  E(vib)   ...       0.00 
freq.    1407.27  E(vib)   ...       0.00 
freq.    1424.06  E(vib)   ...       0.00 
freq.    1424.69  E(vib)   ...       0.00 
freq.    1432.62  E(vib)   ...       0.00 
freq.    1450.72  E(vib)   ...       0.00 
freq.    1454.19  E(vib)   ...       0.00 
freq.    1482.51  E(vib)   ...       0.00 
freq.    1488.95  E(vib)   ...       0.00 
freq.    1500.99  E(vib)   ...       0.00 
freq.    1504.05  E(vib)   ...       0.00 
freq.    1506.55  E(vib)   ...       0.00 
freq.    1510.07  E(vib)   ...       0.00 
freq.    1511.70  E(vib)   ...       0.00 
freq.    1517.11  E(vib)   ...       0.00 
freq.    1519.92  E(vib)   ...       0.00 
freq.    1525.66  E(vib)   ...       0.00 
freq.    1540.45  E(vib)   ...       0.00 
freq.    1551.34  E(vib)   ...       0.00 
freq.    1554.79  E(vib)   ...       0.00 
freq.    1668.61  E(vib)   ...       0.00 
freq.    1680.16  E(vib)   ...       0.00 
freq.    1682.28  E(vib)   ...       0.00 
freq.    1691.86  E(vib)   ...       0.00 
freq.    1729.62  E(vib)   ...       0.00 
freq.    2979.29  E(vib)   ...       0.00 
freq.    2981.11  E(vib)   ...       0.00 
freq.    2985.65  E(vib)   ...       0.00 
freq.    3057.17  E(vib)   ...       0.00 
freq.    3081.61  E(vib)   ...       0.00 
freq.    3090.09  E(vib)   ...       0.00 
freq.    3095.02  E(vib)   ...       0.00 
freq.    3095.68  E(vib)   ...       0.00 
freq.    3097.70  E(vib)   ...       0.00 
freq.    3116.17  E(vib)   ...       0.00 
freq.    3118.73  E(vib)   ...       0.00 
freq.    3120.01  E(vib)   ...       0.00 
freq.    3129.05  E(vib)   ...       0.00 
freq.    3141.70  E(vib)   ...       0.00 
freq.    3151.87  E(vib)   ...       0.00 
freq.    3153.89  E(vib)   ...       0.00 
freq.    3162.93  E(vib)   ...       0.00 
freq.    3165.92  E(vib)   ...       0.00 
freq.    3182.70  E(vib)   ...       0.00 
freq.    3188.77  E(vib)   ...       0.00 
freq.    3202.58  E(vib)   ...       0.00 
freq.    3205.36  E(vib)   ...       0.00 
freq.    3207.71  E(vib)   ...       0.00 
freq.    3214.21  E(vib)   ...       0.00 
freq.    3220.94  E(vib)   ...       0.00 
freq.    3226.06  E(vib)   ...       0.00 
freq.    3234.47  E(vib)   ...       0.00 
freq.    3276.18  E(vib)   ...       0.00 
freq.    3786.62  E(vib)   ...       0.00 

------------
INNER ENERGY
------------

The inner energy is: U= E(el) + E(ZPE) + E(vib) + E(rot) + E(trans)
    E(el)   - is the total energy from the electronic structure calculation
              = E(kin-el) + E(nuc-el) + E(el-el) + E(nuc-nuc)
    E(ZPE)  - the the zero temperature vibrational energy from the frequency calculation
    E(vib)  - the the finite temperature correction to E(ZPE) due to population
              of excited vibrational states
    E(rot)  - is the rotational thermal energy
    E(trans)- is the translational thermal energy

Summary of contributions to the inner energy U:
Electronic energy                ...  -1041.21088368 Eh
Zero point energy                ...      0.48033868 Eh     301.42 kcal/mol
Thermal vibrational correction   ...      0.01952510 Eh      12.25 kcal/mol
Thermal rotational correction    ...      0.00141627 Eh       0.89 kcal/mol
Thermal translational correction ...      0.00141627 Eh       0.89 kcal/mol
-----------------------------------------------------------------------
Total thermal energy                  -1040.70818736 Eh


Summary of corrections to the electronic energy:
(perhaps to be used in another calculation)
Total thermal correction                  0.02235764 Eh      14.03 kcal/mol
Non-thermal (ZPE) correction              0.48033868 Eh     301.42 kcal/mol
-----------------------------------------------------------------------
Total correction                          0.50269632 Eh     315.45 kcal/mol


--------
ENTHALPY
--------

The enthalpy is H = U + kB*T
                kB is Boltzmann's constant
Total free energy                 ...  -1040.70818736 Eh 
Thermal Enthalpy correction       ...      0.00094421 Eh       0.59 kcal/mol
-----------------------------------------------------------------------
Total Enthalpy                    ...  -1040.70724315 Eh


Note: Only C1 symmetry has been detected, increase convergence thresholds 
      if your molecule has a higher symmetry. Symmetry factor of 1.0 is   
      used for the rotational entropy correction. 
 

Note: Rotational entropy computed according to Herzberg 
Infrared and Raman Spectra, Chapter V,1, Van Nostrand Reinhold, 1945 
Point Group:  C1, Symmetry Number:   1  
Rotational constants in cm-1:     0.008609     0.007529     0.006986 

Vibrational entropy computed according to the QRRHO of S. Grimme
Chem.Eur.J. 2012 18 9955


-------
ENTROPY
-------

The entropy contributions are T*S = T*(S(el)+S(vib)+S(rot)+S(trans))
     S(el)   - electronic entropy
     S(vib)  - vibrational entropy
     S(rot)  - rotational entropy
     S(trans)- translational entropy
The entropies will be listed as multiplied by the temperature to get
units of energy

Electronic entropy                ...      0.00000000 Eh      0.00 kcal/mol
Vibrational entropy               ...      0.03397760 Eh     21.32 kcal/mol
Rotational entropy                ...      0.01640693 Eh     10.30 kcal/mol
Translational entropy             ...      0.02059393 Eh     12.92 kcal/mol
-----------------------------------------------------------------------
Final entropy term                ...      0.07097846 Eh     44.54 kcal/mol

In case the symmetry of your molecule has not been determined correctly
or in case you have a reason to use a different symmetry number we print 
out the resulting rotational entropy values for sn=1,12 :
 --------------------------------------------------------
|  sn= 1 | S(rot)=       0.01640693 Eh     10.30 kcal/mol|
|  sn= 2 | S(rot)=       0.01575247 Eh      9.88 kcal/mol|
|  sn= 3 | S(rot)=       0.01536964 Eh      9.64 kcal/mol|
|  sn= 4 | S(rot)=       0.01509802 Eh      9.47 kcal/mol|
|  sn= 5 | S(rot)=       0.01488733 Eh      9.34 kcal/mol|
|  sn= 6 | S(rot)=       0.01471519 Eh      9.23 kcal/mol|
|  sn= 7 | S(rot)=       0.01456964 Eh      9.14 kcal/mol|
|  sn= 8 | S(rot)=       0.01444356 Eh      9.06 kcal/mol|
|  sn= 9 | S(rot)=       0.01433235 Eh      8.99 kcal/mol|
|  sn=10 | S(rot)=       0.01423287 Eh      8.93 kcal/mol|
|  sn=11 | S(rot)=       0.01414288 Eh      8.87 kcal/mol|
|  sn=12 | S(rot)=       0.01406073 Eh      8.82 kcal/mol|
 --------------------------------------------------------


-------------------
GIBBS FREE ENERGY
-------------------

The Gibbs free energy is G = H - T*S

Total enthalpy                    ...  -1040.70724315 Eh 
Total entropy correction          ...     -0.07097846 Eh    -44.54 kcal/mol
-----------------------------------------------------------------------
Final Gibbs free energy         ...  -1040.77822162 Eh

For completeness - the Gibbs free energy minus the electronic energy
G-E(el)                           ...      0.43266207 Eh    271.50 kcal/mol


Timings for individual modules:

Sum of individual times         ...    32124.996 sec (= 535.417 min)
GTO integral calculation        ...       34.814 sec (=   0.580 min)   0.1 %
SCF iterations                  ...    11694.117 sec (= 194.902 min)  36.4 %
SCF Gradient evaluation         ...     3212.024 sec (=  53.534 min)  10.0 %
Geometry relaxation             ...        3.518 sec (=   0.059 min)   0.0 %
Analytical frequency calculation...    14434.487 sec (= 240.575 min)  44.9 %
CHELPG charge generation        ...     2746.035 sec (=  45.767 min)   8.5 %
                             ****ORCA TERMINATED NORMALLY****
TOTAL RUN TIME: 0 days 8 hours 55 minutes 40 seconds 401 msec
