
Lmod is automatically replacing "intel/2020.1.217" with "gcc/10.3.0".


The following have been reloaded with a version change:
  1) gcccore/.9.3.0 => gcccore/.10.3.0        3) openmpi/4.0.3 => openmpi/4.1.1
  2) libfabric/1.10.1 => libfabric/1.12.1     4) ucx/1.8.0 => ucx/1.9.0

To execute ORCA, run: 
   ${EBROOTORCA}/orca orca.inp > orca.out

                                 *****************
                                 * O   R   C   A *
                                 *****************

                                            #,                                       
                                            ###                                      
                                            ####                                     
                                            #####                                    
                                            ######                                   
                                           ########,                                 
                                     ,,################,,,,,                         
                               ,,#################################,,                 
                          ,,##########################################,,             
                       ,#########################################, ''#####,          
                    ,#############################################,,   '####,        
                  ,##################################################,,,,####,       
                ,###########''''           ''''###############################       
              ,#####''   ,,,,##########,,,,          '''####'''          '####       
            ,##' ,,,,###########################,,,                        '##       
           ' ,,###''''                  '''############,,,                           
         ,,##''                                '''############,,,,        ,,,,,,###''
      ,#''                                            '''#######################'''  
     '                                                          ''''####''''         
             ,#######,   #######,   ,#######,      ##                                
            ,#'     '#,  ##    ##  ,#'     '#,    #''#        ######   ,####,        
            ##       ##  ##   ,#'  ##            #'  '#       #        #'  '#        
            ##       ##  #######   ##           ,######,      #####,   #    #        
            '#,     ,#'  ##    ##  '#,     ,#' ,#      #,         ##   #,  ,#        
             '#######'   ##     ##  '#######'  #'      '#     #####' # '####'        



                  #######################################################
                  #                        -***-                        #
                  #          Department of theory and spectroscopy      #
                  #    Directorship and core code : Frank Neese         #
                  #        Max Planck Institute fuer Kohlenforschung    #
                  #                Kaiser Wilhelm Platz 1               #
                  #                 D-45470 Muelheim/Ruhr               #
                  #                      Germany                        #
                  #                                                     #
                  #                  All rights reserved                #
                  #                        -***-                        #
                  #######################################################


                         Program Version 5.0.4 -  RELEASE  -


 With contributions from (in alphabetic order):
   Daniel Aravena         : Magnetic Suceptibility
   Michael Atanasov       : Ab Initio Ligand Field Theory (pilot matlab implementation)
   Alexander A. Auer      : GIAO ZORA, VPT2 properties, NMR spectrum
   Ute Becker             : Parallelization
   Giovanni Bistoni       : ED, misc. LED, open-shell LED, HFLD
   Martin Brehm           : Molecular dynamics
   Dmytro Bykov           : SCF Hessian
   Vijay G. Chilkuri      : MRCI spin determinant printing, contributions to CSF-ICE
   Dipayan Datta          : RHF DLPNO-CCSD density
   Achintya Kumar Dutta   : EOM-CC, STEOM-CC
   Dmitry Ganyushin       : Spin-Orbit,Spin-Spin,Magnetic field MRCI
   Miquel Garcia          : C-PCM and meta-GGA Hessian, CC/C-PCM, Gaussian charge scheme
   Yang Guo               : DLPNO-NEVPT2, F12-NEVPT2, CIM, IAO-localization
   Andreas Hansen         : Spin unrestricted coupled pair/coupled cluster methods
   Benjamin Helmich-Paris : MC-RPA, TRAH-SCF, COSX integrals
   Lee Huntington         : MR-EOM, pCC
   Robert Izsak           : Overlap fitted RIJCOSX, COSX-SCS-MP3, EOM
   Marcus Kettner         : VPT2
   Christian Kollmar      : KDIIS, OOCD, Brueckner-CCSD(T), CCSD density, CASPT2, CASPT2-K
   Simone Kossmann        : Meta GGA functionals, TD-DFT gradient, OOMP2, MP2 Hessian
   Martin Krupicka        : Initial AUTO-CI
   Lucas Lang             : DCDCAS
   Marvin Lechner         : AUTO-CI (C++ implementation), FIC-MRCC
   Dagmar Lenk            : GEPOL surface, SMD
   Dimitrios Liakos       : Extrapolation schemes; Compound Job, initial MDCI parallelization
   Dimitrios Manganas     : Further ROCIS development; embedding schemes
   Dimitrios Pantazis     : SARC Basis sets
   Anastasios Papadopoulos: AUTO-CI, single reference methods and gradients
   Taras Petrenko         : DFT Hessian,TD-DFT gradient, ASA, ECA, R-Raman, ABS, FL, XAS/XES, NRVS
   Peter Pinski           : DLPNO-MP2, DLPNO-MP2 Gradient
   Christoph Reimann      : Effective Core Potentials
   Marius Retegan         : Local ZFS, SOC
   Christoph Riplinger    : Optimizer, TS searches, QM/MM, DLPNO-CCSD(T), (RO)-DLPNO pert. Triples
   Tobias Risthaus        : Range-separated hybrids, TD-DFT gradient, RPA, STAB
   Michael Roemelt        : Original ROCIS implementation
   Masaaki Saitow         : Open-shell DLPNO-CCSD energy and density
   Barbara Sandhoefer     : DKH picture change effects
   Avijit Sen             : IP-ROCIS
   Kantharuban Sivalingam : CASSCF convergence, NEVPT2, FIC-MRCI
   Bernardo de Souza      : ESD, SOC TD-DFT
   Georgi Stoychev        : AutoAux, RI-MP2 NMR, DLPNO-MP2 response
   Willem Van den Heuvel  : Paramagnetic NMR
   Boris Wezisla          : Elementary symmetry handling
   Frank Wennmohs         : Technical directorship


 We gratefully acknowledge several colleagues who have allowed us to
 interface, adapt or use parts of their codes:
   Stefan Grimme, W. Hujo, H. Kruse, P. Pracht,  : VdW corrections, initial TS optimization,
                  C. Bannwarth, S. Ehlert          DFT functionals, gCP, sTDA/sTD-DF
   Ed Valeev, F. Pavosevic, A. Kumar             : LibInt (2-el integral package), F12 methods
   Garnet Chan, S. Sharma, J. Yang, R. Olivares  : DMRG
   Ulf Ekstrom                                   : XCFun DFT Library
   Mihaly Kallay                                 : mrcc  (arbitrary order and MRCC methods)
   Jiri Pittner, Ondrej Demel                    : Mk-CCSD
   Frank Weinhold                                : gennbo (NPA and NBO analysis)
   Christopher J. Cramer and Donald G. Truhlar   : smd solvation model
   Lars Goerigk                                  : TD-DFT with DH, B97 family of functionals
   V. Asgeirsson, H. Jonsson                     : NEB implementation
   FAccTs GmbH                                   : IRC, NEB, NEB-TS, DLPNO-Multilevel, CI-OPT
                                                   MM, QMMM, 2- and 3-layer-ONIOM, Crystal-QMMM,
                                                   LR-CPCM, SF, NACMEs, symmetry and pop. for TD-DFT,
                                                   nearIR, NL-DFT gradient (VV10), updates on ESD,
                                                   ML-optimized integration grids
   S Lehtola, MJT Oliveira, MAL Marques          : LibXC Library
   Liviu Ungur et al                             : ANISO software


 Your calculation uses the libint2 library for the computation of 2-el integrals
 For citations please refer to: http://libint.valeyev.net

 Your ORCA version has been built with support for libXC version: 5.1.0
 For citations please refer to: https://tddft.org/programs/libxc/

 This ORCA versions uses:
   CBLAS   interface :  Fast vector & matrix operations
   LAPACKE interface :  Fast linear algebra routines
   SCALAPACK package :  Parallel linear algebra routines
   Shared memory     :  Shared parallel matrices
   BLAS/LAPACK       :  OpenBLAS 0.3.15  USE64BITINT DYNAMIC_ARCH NO_AFFINITY Haswell SINGLE_THREADED
        Core in use  :  Haswell
   Copyright (c) 2011-2014, The OpenBLAS Project


Your calculation utilizes the atom-pairwise dispersion correction
with the Becke-Johnson damping scheme (D3BJ)
Cite in your paper:
S.Grimme, S.Ehrlich, L.Goerigk, J Comput Chem, (2011), 32, 1456–1465 
S.Grimme, J.Antony, S.Ehrlich and H.Krieg, J.Chem.Phys., 132, (2010), 154104 
   

================================================================================

----- Orbital basis set information -----
Your calculation utilizes the basis: def2-TZVP
   F. Weigend and R. Ahlrichs, Phys. Chem. Chem. Phys. 7, 3297 (2005).

----- AuxJ basis set information -----
Your calculation utilizes the auxiliary basis: def2/J
   F. Weigend, Phys. Chem. Chem. Phys. 8, 1057 (2006).

================================================================================
                                        WARNINGS
                       Please study these warnings very carefully!
================================================================================


WARNING: Geometry Optimization
  ===> : Switching off AutoStart
         For restart on a previous wavefunction, please use MOREAD

INFO   : the flag for use of the SHARK integral package has been found!

================================================================================
                                       INPUT FILE
================================================================================
NAME = Fentanyl_OProt_39.inp
|  1> ! wB97X-D3BJ TightOpt Freq def2-TZVP def2/J RIJCOSX TightSCF defgrid3 CHELPG
|  2> %maxcore 3400
|  3> 
|  4> %pal nprocs 8 
|  5> end
|  6> 
|  7> %chelpg
|  8> grid 0.1
|  9> rmax 3.0
| 10> end
| 11> 
| 12> *xyz 1 1
| 13> O          -0.03419266      -1.90724041       0.57710853
| 14> N          -1.92451496       1.93460167      -0.47680691
| 15> N           1.52920815      -0.41657159      -0.21248566
| 16> C           0.61945848       0.72054421      -0.45944726
| 17> C          -0.40248862       0.40843855      -1.55709839
| 18> C          -0.03789103       1.23382870       0.82503761
| 19> C          -1.31689618       1.62463295      -1.74538088
| 20> C          -0.94984986       2.41360221       0.46616414
| 21> C          -3.22071576       2.58302021      -0.52038807
| 22> C          -4.31702493       1.50555022      -0.64291576
| 23> C           2.90080859      -0.15777073      -0.56943796
| 24> C           1.17735838      -1.57644131       0.26154311
| 25> C          -4.90055439       1.26463614       0.72028431
| 26> C           2.18155518      -2.64809736       0.54134612
| 27> C           3.37996806      -0.58932664      -1.79827835
| 28> C           3.70582137       0.57235052       0.29194680
| 29> C           2.75152900      -2.46532239       1.95521583
| 30> C          -4.62237960       0.09443268       1.41434281
| 31> C          -5.65713897       2.24707603       1.34845802
| 32> C           4.68546150      -0.29920561      -2.15633402
| 33> C           5.01083215       0.85457699      -0.07562535
| 34> C           5.50038019       0.41835093      -1.29570051
| 35> C          -5.06893219      -0.08250062       2.71478416
| 36> C          -6.10525899       2.07546980       2.64616684
| 37> C          -5.80307233       0.91414513       3.33878924
| 38> H           1.26712393       1.52112714      -0.83496078
| 39> H          -1.03360947      -0.44256558      -1.29940476
| 40> H           0.11754532       0.18339132      -2.48977383
| 41> H           0.72903765       1.55261724       1.53252525
| 42> H          -0.65999882       0.47946131       1.30917892
| 43> H          -0.72908945       2.47089131      -2.14427354
| 44> H          -2.09416112       1.37937342      -2.46801418
| 45> H          -1.45268909       2.75968840       1.36902483
| 46> H          -0.34094361       3.24445949       0.06679150
| 47> H          -3.35889925       3.12568329       0.41519528
| 48> H          -3.30026167       3.30599322      -1.34291519
| 49> H          -3.89433164       0.57925807      -1.03275163
| 50> H          -5.08095861       1.84993980      -1.34016334
| 51> H           2.99186757      -2.62878606      -0.18526716
| 52> H           1.66541065      -3.60714417       0.49005101
| 53> H           2.73707251      -1.14528917      -2.46399440
| 54> H           3.31558470       0.91845208       1.23696487
| 55> H           3.41946855      -3.29192696       2.17611571
| 56> H           1.95412213      -2.46228703       2.69321479
| 57> H           3.31503206      -1.53962848       2.03243464
| 58> H          -4.06505298      -0.69387990       0.92762346
| 59> H          -5.90392793       3.15179563       0.81331321
| 60> H           5.06244694      -0.63285680      -3.10993656
| 61> H           5.64200336       1.41805169       0.59293497
| 62> H           6.51654416       0.64182790      -1.57850151
| 63> H          -4.86235953      -1.00659324       3.23644388
| 64> H          -6.69661292       2.84574386       3.11795239
| 65> H          -6.15351767       0.77594696       4.35041941
| 66> H          -0.74963112      -1.24723316       0.45904537
| 67> *
| 68> 
| 69> 
| 70>                          ****END OF INPUT****
================================================================================

                       *****************************
                       * Geometry Optimization Run *
                       *****************************

Geometry optimization settings:
Update method            Update   .... BFGS
Choice of coordinates    CoordSys .... Z-matrix Internals
Initial Hessian          InHess   .... Almoef's Model

Convergence Tolerances:
Energy Change            TolE     ....  1.0000e-06 Eh
Max. Gradient            TolMAXG  ....  1.0000e-04 Eh/bohr
RMS Gradient             TolRMSG  ....  3.0000e-05 Eh/bohr
Max. Displacement        TolMAXD  ....  1.0000e-03 bohr
RMS Displacement         TolRMSD  ....  6.0000e-04 bohr
Strict Convergence                ....  False
------------------------------------------------------------------------------
                        ORCA OPTIMIZATION COORDINATE SETUP
------------------------------------------------------------------------------

The optimization will be done in new redundant internal coordinates
Making redundant internal coordinates   ...  (new redundants) done
Evaluating the initial hessian          ...  (Almloef) done
Evaluating the coordinates              ...  done
Calculating the B-matrix                .... done
Calculating the G-matrix                .... done
Diagonalizing the G-matrix              .... done
Small eigenvalue found = 3.077e-03
Small eigenvalue found = 3.855e-03
Small eigenvalue found = 6.257e-03
Small eigenvalue found = 7.048e-03
Small eigenvalue found = 1.307e-02
Small eigenvalue found = 1.580e-02
Small eigenvalue found = 2.652e-02
Small eigenvalue found = 2.928e-02
The first mode is                       ....  149
The number of degrees of freedom        ....  156

    -----------------------------------------------------------------
                    Redundant Internal Coordinates


    -----------------------------------------------------------------
         Definition                    Initial Value    Approx d2E/dq
    -----------------------------------------------------------------
      1. B(C   3,N   2)                  1.4770         0.406442   
      2. B(C   4,C   3)                  1.5319         0.371018   
      3. B(C   5,C   3)                  1.5315         0.371531   
      4. B(C   6,C   4)                  1.5332         0.369201   
      5. B(C   6,N   1)                  1.4403         0.465127   
      6. B(C   7,N   1)                  1.4383         0.468674   
      7. B(C   7,C   5)                  1.5337         0.368492   
      8. B(C   8,N   1)                  1.4500         0.448910   
      9. B(C   9,C   8)                  1.5420         0.357428   
     10. B(C  10,N   2)                  1.4407         0.464463   
     11. B(C  11,N   2)                  1.3015         0.774702   
     12. B(C  11,O   0)                  1.2949         0.793488   
     13. B(C  12,C   9)                  1.5023         0.413614   
     14. B(C  13,C  11)                  1.4950         0.424769   
     15. B(C  14,C  10)                  1.3878         0.629955   
     16. B(C  15,C  10)                  1.3868         0.632275   
     17. B(C  16,C  13)                  1.5354         0.366302   
     18. B(C  17,C  12)                  1.3887         0.627798   
     19. B(C  18,C  12)                  1.3900         0.624705   
     20. B(C  19,C  14)                  1.3844         0.637678   
     21. B(C  20,C  15)                  1.3849         0.636726   
     22. B(C  21,C  20)                  1.3851         0.636118   
     23. B(C  21,C  19)                  1.3855         0.635161   
     24. B(C  22,C  17)                  1.3863         0.633318   
     25. B(C  23,C  18)                  1.3836         0.639695   
     26. B(C  24,C  23)                  1.3855         0.635121   
     27. B(C  24,C  22)                  1.3862         0.633499   
     28. B(H  25,C   3)                  1.0961         0.352133   
     29. B(H  26,C   4)                  1.0904         0.359598   
     30. B(H  27,C   4)                  1.0913         0.358367   
     31. B(H  28,C   5)                  1.0910         0.358741   
     32. B(H  29,C   5)                  1.0911         0.358659   
     33. B(H  30,C   6)                  1.1049         0.340930   
     34. B(H  31,C   6)                  1.0893         0.361077   
     35. B(H  32,C   7)                  1.0899         0.360294   
     36. B(H  33,C   7)                  1.1048         0.341041   
     37. B(H  34,C   8)                  1.0904         0.359619   
     38. B(H  35,C   8)                  1.0980         0.349692   
     39. B(H  36,C   9)                  1.0903         0.359761   
     40. B(H  37,C   9)                  1.0901         0.359946   
     41. B(H  38,C  13)                  1.0886         0.362020   
     42. B(H  39,C  13)                  1.0903         0.359671   
     43. B(H  40,C  14)                  1.0796         0.374092   
     44. B(H  41,C  15)                  1.0794         0.374383   
     45. B(H  42,C  16)                  1.0855         0.366161   
     46. B(H  43,C  16)                  1.0865         0.364743   
     47. B(H  44,C  16)                  1.0865         0.364806   
     48. B(H  45,C  17)                  1.0812         0.371962   
     49. B(H  46,C  18)                  1.0797         0.373955   
     50. B(H  47,C  19)                  1.0783         0.375871   
     51. B(H  48,C  20)                  1.0784         0.375836   
     52. B(H  49,C  21)                  1.0782         0.376058   
     53. B(H  50,C  22)                  1.0811         0.372086   
     54. B(H  51,C  23)                  1.0796         0.374081   
     55. B(H  52,C  24)                  1.0795         0.374270   
     56. B(H  53,H  45)                  3.3938         0.000015   
     57. B(H  53,O   0)                  0.9805         0.482218   
     58. A(C  11,O   0,H  53)          118.7753         0.381234   
     59. A(C   7,N   1,C   8)          118.4613         0.385129   
     60. A(C   6,N   1,C   8)          116.5437         0.384620   
     61. A(C   6,N   1,C   7)          111.2992         0.387517   
     62. A(C   3,N   2,C  11)          125.4847         0.413424   
     63. A(C  10,N   2,C  11)          120.5114         0.423372   
     64. A(C   3,N   2,C  10)          113.9950         0.377951   
     65. A(C   4,C   3,C   5)          112.5144         0.362586   
     66. A(N   2,C   3,H  25)          104.8117         0.325678   
     67. A(N   2,C   3,C   4)          111.9534         0.365906   
     68. A(N   2,C   3,C   5)          112.4673         0.365993   
     69. A(C   5,C   3,H  25)          107.2274         0.322840   
     70. A(C   4,C   3,H  25)          107.3090         0.322767   
     71. A(C   3,C   4,C   6)          108.9203         0.362196   
     72. A(C   3,C   4,H  27)          109.6638         0.323697   
     73. A(C   6,C   4,H  26)          107.6327         0.323618   
     74. A(H  26,C   4,H  27)          108.4724         0.290555   
     75. A(C   6,C   4,H  27)          110.0491         0.323436   
     76. A(C   3,C   4,H  26)          112.0742         0.323879   
     77. A(C   3,C   5,H  29)          112.6539         0.323814   
     78. A(H  28,C   5,H  29)          108.3655         0.290484   
     79. A(C   3,C   5,C   7)          108.4679         0.362163   
     80. A(C   3,C   5,H  28)          109.8819         0.323826   
     81. A(C   7,C   5,H  29)          107.2553         0.323377   
     82. A(C   7,C   5,H  28)          110.1783         0.323390   
     83. A(C   4,C   6,H  31)          109.1740         0.323836   
     84. A(C   4,C   6,H  30)          109.5483         0.320804   
     85. A(N   1,C   6,H  30)          112.1834         0.331235   
     86. A(N   1,C   6,C   4)          108.3094         0.374172   
     87. A(H  30,C   6,H  31)          108.2141         0.288478   
     88. A(N   1,C   6,H  31)          109.3740         0.334403   
     89. A(H  32,C   7,H  33)          108.3572         0.288395   
     90. A(N   1,C   7,H  33)          112.7649         0.331670   
     91. A(C   5,C   7,H  33)          109.5942         0.320721   
     92. A(C   5,C   7,H  32)          108.9514         0.323619   
     93. A(N   1,C   7,H  32)          109.6476         0.334705   
     94. A(N   1,C   7,C   5)          107.4679         0.374539   
     95. A(C   9,C   8,H  35)          110.4295         0.320436   
     96. A(N   1,C   8,H  35)          112.4410         0.330681   
     97. A(C   9,C   8,H  34)          109.0160         0.321907   
     98. A(N   1,C   8,H  34)          108.0629         0.332217   
     99. A(N   1,C   8,C   9)          108.9940         0.369823   
    100. A(H  34,C   8,H  35)          107.8121         0.289443   
    101. A(C   8,C   9,H  37)          109.1657         0.321955   
    102. A(H  36,C   9,H  37)          108.1437         0.290777   
    103. A(C  12,C   9,H  37)          111.0297         0.329781   
    104. A(C   8,C   9,C  12)          108.4275         0.366953   
    105. A(C  12,C   9,H  36)          109.8041         0.329753   
    106. A(C   8,C   9,H  36)          110.2689         0.321928   
    107. A(C  14,C  10,C  15)          120.8846         0.436852   
    108. A(N   2,C  10,C  15)          119.5596         0.410995   
    109. A(N   2,C  10,C  14)          119.4876         0.410727   
    110. A(O   0,C  11,N   2)          124.7059         0.466462   
    111. A(N   2,C  11,C  13)          121.6952         0.419398   
    112. A(O   0,C  11,C  13)          113.5602         0.421194   
    113. A(C  17,C  12,C  18)          118.6030         0.435636   
    114. A(C   9,C  12,C  18)          120.5405         0.404396   
    115. A(C   9,C  12,C  17)          120.7202         0.404749   
    116. A(C  11,C  13,C  16)          109.6556         0.370189   
    117. A(H  38,C  13,H  39)          109.6691         0.291028   
    118. A(C  16,C  13,H  39)          108.8912         0.323211   
    119. A(C  11,C  13,H  39)          107.6818         0.331194   
    120. A(C  16,C  13,H  38)          109.6475         0.323556   
    121. A(C  11,C  13,H  38)          111.2450         0.331551   
    122. A(C  10,C  14,C  19)          119.3030         0.437523   
    123. A(C  19,C  14,H  40)          120.6613         0.356895   
    124. A(C  10,C  14,H  40)          120.0357         0.356157   
    125. A(C  10,C  15,C  20)          119.3051         0.437695   
    126. A(C  20,C  15,H  41)          120.5118         0.356852   
    127. A(C  10,C  15,H  41)          120.1828         0.356427   
    128. A(H  43,C  16,H  44)          109.2684         0.292021   
    129. A(H  42,C  16,H  44)          108.3739         0.292200   
    130. A(C  13,C  16,H  44)          111.0647         0.323964   
    131. A(H  42,C  16,H  43)          108.3918         0.292192   
    132. A(C  13,C  16,H  43)          110.6937         0.323954   
    133. A(C  13,C  16,H  42)          108.9771         0.324161   
    134. A(C  12,C  17,C  22)          120.7876         0.436712   
    135. A(C  22,C  17,H  45)          119.6881         0.356134   
    136. A(C  12,C  17,H  45)          119.5163         0.355605   
    137. A(C  23,C  18,H  46)          119.6544         0.357064   
    138. A(C  12,C  18,H  46)          119.5144         0.355630   
    139. A(C  12,C  18,C  23)          120.8296         0.437112   
    140. A(C  14,C  19,C  21)          120.1659         0.438173   
    141. A(C  21,C  19,H  47)          120.2606         0.356943   
    142. A(C  14,C  19,H  47)          119.5733         0.357183   
    143. A(C  15,C  20,C  21)          120.1771         0.438174   
    144. A(C  21,C  20,H  48)          120.2521         0.357029   
    145. A(C  15,C  20,H  48)          119.5706         0.357087   
    146. A(C  19,C  21,C  20)          120.1574         0.437979   
    147. A(C  20,C  21,H  49)          119.9248         0.357064   
    148. A(C  19,C  21,H  49)          119.9171         0.356973   
    149. A(C  24,C  22,H  50)          119.9033         0.356171   
    150. A(C  17,C  22,H  50)          120.0125         0.356154   
    151. A(C  17,C  22,C  24)          120.0722         0.437424   
    152. A(C  24,C  23,H  51)          119.9351         0.356650   
    153. A(C  18,C  23,H  51)          119.9191         0.357085   
    154. A(C  18,C  23,C  24)          120.1448         0.438417   
    155. A(C  23,C  24,H  52)          120.3292         0.356680   
    156. A(C  22,C  24,H  52)          120.1145         0.356526   
    157. A(C  22,C  24,C  23)          119.5441         0.437649   
    158. D(C   4,C   3,N   2,C  11)    -65.1012         0.014096   
    159. D(C   4,C   3,N   2,C  10)    113.8161         0.014096   
    160. D(H  25,C   3,N   2,C  10)     -2.1855         0.014096   
    161. D(C   5,C   3,N   2,C  11)     62.7385         0.014096   
    162. D(H  25,C   3,N   2,C  11)    178.8972         0.014096   
    163. D(C   5,C   3,N   2,C  10)   -118.3442         0.014096   
    164. D(C   6,C   4,C   3,N   2)    179.3973         0.011000   
    165. D(H  27,C   4,C   3,N   2)    -60.1162         0.011000   
    166. D(H  27,C   4,C   3,C   5)    172.0693         0.011000   
    167. D(C   6,C   4,C   3,H  25)    -66.1263         0.011000   
    168. D(H  26,C   4,C   3,H  25)    174.8907         0.011000   
    169. D(H  26,C   4,C   3,C   5)    -67.4002         0.011000   
    170. D(H  26,C   4,C   3,N   2)     60.4144         0.011000   
    171. D(H  27,C   4,C   3,H  25)     54.3602         0.011000   
    172. D(C   6,C   4,C   3,C   5)     51.5828         0.011000   
    173. D(H  29,C   5,C   3,N   2)    -61.8397         0.011029   
    174. D(H  28,C   5,C   3,H  25)    -55.6093         0.011029   
    175. D(H  28,C   5,C   3,C   4)   -173.3667         0.011029   
    176. D(C   7,C   5,C   3,H  25)     64.8881         0.011029   
    177. D(H  29,C   5,C   3,H  25)   -176.5395         0.011029   
    178. D(C   7,C   5,C   3,C   4)    -52.8693         0.011029   
    179. D(H  29,C   5,C   3,C   4)     65.7031         0.011029   
    180. D(C   7,C   5,C   3,N   2)    179.5879         0.011029   
    181. D(H  28,C   5,C   3,N   2)     59.0905         0.011029   
    182. D(H  31,C   6,N   1,C   8)    -33.2983         0.018476   
    183. D(H  31,C   6,N   1,C   7)   -173.3411         0.018476   
    184. D(H  30,C   6,N   1,C   8)     86.7812         0.018476   
    185. D(H  30,C   6,N   1,C   7)    -53.2616         0.018476   
    186. D(C   4,C   6,N   1,C   8)   -152.1850         0.018476   
    187. D(N   1,C   6,C   4,C   3)    -56.5237         0.010900   
    188. D(C   4,C   6,N   1,C   7)     67.7723         0.018476   
    189. D(H  31,C   6,C   4,H  26)    -53.8143         0.010900   
    190. D(H  31,C   6,C   4,C   3)   -175.5368         0.010900   
    191. D(H  30,C   6,C   4,H  27)    -54.1214         0.010900   
    192. D(H  30,C   6,C   4,H  26)   -172.1499         0.010900   
    193. D(H  30,C   6,C   4,C   3)     66.1276         0.010900   
    194. D(N   1,C   6,C   4,H  27)   -176.7727         0.010900   
    195. D(H  31,C   6,C   4,H  27)     64.2142         0.010900   
    196. D(N   1,C   6,C   4,H  26)     65.1987         0.010900   
    197. D(H  33,C   7,C   5,H  29)    174.2235         0.010860   
    198. D(H  33,C   7,C   5,H  28)     56.4713         0.010860   
    199. D(H  33,C   7,C   5,C   3)    -63.8420         0.010860   
    200. D(H  32,C   7,C   5,H  29)     55.8191         0.010860   
    201. D(H  32,C   7,C   5,H  28)    -61.9331         0.010860   
    202. D(H  32,C   7,C   5,C   3)    177.7536         0.010860   
    203. D(N   1,C   7,C   5,H  29)    -62.9150         0.010860   
    204. D(N   1,C   7,C   5,H  28)    179.3327         0.010860   
    205. D(N   1,C   7,C   5,C   3)     59.0195         0.010860   
    206. D(H  33,C   7,N   1,C   8)    -87.2505         0.018765   
    207. D(H  33,C   7,N   1,C   6)     51.9431         0.018765   
    208. D(H  32,C   7,N   1,C   8)     33.5788         0.018765   
    209. D(H  32,C   7,N   1,C   6)    172.7724         0.018765   
    210. D(C   5,C   7,N   1,C   8)    151.8641         0.018765   
    211. D(C   5,C   7,N   1,C   6)    -68.9423         0.018765   
    212. D(H  35,C   8,N   1,C   7)     99.8520         0.017190   
    213. D(H  35,C   8,N   1,C   6)    -37.2568         0.017190   
    214. D(H  34,C   8,N   1,C   7)    -19.0172         0.017190   
    215. D(H  34,C   8,N   1,C   6)   -156.1259         0.017190   
    216. D(C   9,C   8,N   1,C   7)   -137.3581         0.017190   
    217. D(C   9,C   8,N   1,C   6)     85.5332         0.017190   
    218. D(C  12,C   9,C   8,H  35)   -136.6865         0.010260   
    219. D(C  12,C   9,C   8,H  34)    -18.4154         0.010260   
    220. D(C  12,C   9,C   8,N   1)     99.3253         0.010260   
    221. D(H  37,C   9,C   8,H  35)    -15.6057         0.010260   
    222. D(H  37,C   9,C   8,H  34)    102.6654         0.010260   
    223. D(H  37,C   9,C   8,N   1)   -139.5939         0.010260   
    224. D(H  36,C   9,C   8,H  35)    103.0660         0.010260   
    225. D(H  36,C   9,C   8,H  34)   -138.6629         0.010260   
    226. D(H  36,C   9,C   8,N   1)    -20.9222         0.010260   
    227. D(C  15,C  10,N   2,C  11)   -101.5031         0.016999   
    228. D(C  15,C  10,N   2,C   3)     79.5202         0.016999   
    229. D(C  14,C  10,N   2,C  11)     81.4734         0.016999   
    230. D(C  14,C  10,N   2,C   3)    -97.5033         0.016999   
    231. D(C  13,C  11,N   2,C  10)      4.1873         0.050775   
    232. D(C  13,C  11,N   2,C   3)   -176.9609         0.050775   
    233. D(O   0,C  11,N   2,C  10)   -178.2268         0.050775   
    234. D(O   0,C  11,N   2,C   3)      0.6251         0.050775   
    235. D(C  13,C  11,O   0,H  53)    177.5703         0.048432   
    236. D(N   2,C  11,O   0,H  53)     -0.1890         0.048432   
    237. D(C  18,C  12,C   9,H  37)    -51.7207         0.012663   
    238. D(C  18,C  12,C   9,H  36)   -171.2613         0.012663   
    239. D(C  18,C  12,C   9,C   8)     68.2022         0.012663   
    240. D(C  17,C  12,C   9,H  37)    132.5815         0.012663   
    241. D(C  17,C  12,C   9,H  36)     13.0410         0.012663   
    242. D(C  17,C  12,C   9,C   8)   -107.4955         0.012663   
    243. D(H  39,C  13,C  11,N   2)   -155.0772         0.013333   
    244. D(H  39,C  13,C  11,O   0)     27.0877         0.013333   
    245. D(H  38,C  13,C  11,N   2)    -34.8801         0.013333   
    246. D(H  38,C  13,C  11,O   0)    147.2848         0.013333   
    247. D(C  16,C  13,C  11,N   2)     86.5819         0.013333   
    248. D(C  16,C  13,C  11,O   0)    -91.2532         0.013333   
    249. D(H  40,C  14,C  10,C  15)   -179.1631         0.027515   
    250. D(H  40,C  14,C  10,N   2)     -2.1800         0.027515   
    251. D(C  19,C  14,C  10,C  15)      0.8505         0.027515   
    252. D(C  19,C  14,C  10,N   2)    177.8335         0.027515   
    253. D(H  41,C  15,C  10,C  14)    178.8338         0.027731   
    254. D(H  41,C  15,C  10,N   2)      1.8529         0.027731   
    255. D(C  20,C  15,C  10,C  14)     -0.9703         0.027731   
    256. D(C  20,C  15,C  10,N   2)   -177.9512         0.027731   
    257. D(H  44,C  16,C  13,H  39)    177.3083         0.010740   
    258. D(H  44,C  16,C  13,C  11)    -65.1035         0.010740   
    259. D(H  43,C  16,C  13,H  39)    -61.1241         0.010740   
    260. D(H  43,C  16,C  13,H  38)    178.8815         0.010740   
    261. D(H  43,C  16,C  13,C  11)     56.4641         0.010740   
    262. D(H  42,C  16,C  13,H  39)     57.9905         0.010740   
    263. D(H  44,C  16,C  13,H  38)     57.3139         0.010740   
    264. D(H  42,C  16,C  13,H  38)    -62.0039         0.010740   
    265. D(H  42,C  16,C  13,C  11)    175.5786         0.010740   
    266. D(H  45,C  17,C  12,C  18)    177.8471         0.027315   
    267. D(H  45,C  17,C  12,C   9)     -6.3732         0.027315   
    268. D(C  22,C  17,C  12,C  18)     -1.1180         0.027315   
    269. D(C  22,C  17,C  12,C   9)    174.6616         0.027315   
    270. D(H  46,C  18,C  12,C  17)   -178.4144         0.027030   
    271. D(H  46,C  18,C  12,C   9)      5.7981         0.027030   
    272. D(C  23,C  18,C  12,C  17)      1.1160         0.027030   
    273. D(C  23,C  18,C  12,C   9)   -174.6715         0.027030   
    274. D(H  47,C  19,C  14,H  40)     -0.0173         0.028239   
    275. D(H  47,C  19,C  14,C  10)    179.9690         0.028239   
    276. D(C  21,C  19,C  14,H  40)    179.8120         0.028239   
    277. D(C  21,C  19,C  14,C  10)     -0.2016         0.028239   
    278. D(H  48,C  20,C  15,H  41)      0.4814         0.028149   
    279. D(H  48,C  20,C  15,C  10)   -179.7152         0.028149   
    280. D(C  21,C  20,C  15,H  41)   -179.3614         0.028149   
    281. D(C  21,C  20,C  15,C  10)      0.4420         0.028149   
    282. D(H  49,C  21,C  19,C  14)    179.9834         0.028002   
    283. D(C  20,C  21,C  19,H  47)    179.5123         0.028002   
    284. D(C  20,C  21,C  19,C  14)     -0.3159         0.028002   
    285. D(H  49,C  21,C  20,H  48)      0.0535         0.028092   
    286. D(H  49,C  21,C  20,C  15)    179.8952         0.028092   
    287. D(C  19,C  21,C  20,H  48)   -179.6472         0.028092   
    288. D(C  19,C  21,C  20,C  15)      0.1945         0.028092   
    289. D(H  49,C  21,C  19,H  47)     -0.1884         0.028002   
    290. D(H  50,C  22,C  17,H  45)     -0.2008         0.027829   
    291. D(H  50,C  22,C  17,C  12)    178.7626         0.027829   
    292. D(C  24,C  22,C  17,H  45)   -178.9396         0.027829   
    293. D(C  24,C  22,C  17,C  12)      0.0238         0.027829   
    294. D(H  51,C  23,C  18,H  46)     -0.1264         0.028430   
    295. D(H  51,C  23,C  18,C  12)   -179.6562         0.028430   
    296. D(C  24,C  23,C  18,H  46)    179.5120         0.028430   
    297. D(C  24,C  23,C  18,C  12)     -0.0178         0.028430   
    298. D(H  52,C  24,C  23,H  51)     -0.1892         0.027998   
    299. D(H  52,C  24,C  23,C  18)   -179.8274         0.027998   
    300. D(C  22,C  24,C  23,H  51)    178.5453         0.027998   
    301. D(C  22,C  24,C  23,C  18)     -1.0930         0.027998   
    302. D(H  52,C  24,C  22,H  50)      1.0868         0.027846   
    303. D(H  52,C  24,C  22,C  17)    179.8269         0.027846   
    304. D(C  23,C  24,C  22,H  50)   -177.6504         0.027846   
    305. D(C  23,C  24,C  22,C  17)      1.0897         0.027846   
    -----------------------------------------------------------------

Number of atoms                         .... 54
Number of degrees of freedom            .... 305

         *************************************************************
         *                GEOMETRY OPTIMIZATION CYCLE   1            *
         *************************************************************
---------------------------------
CARTESIAN COORDINATES (ANGSTROEM)
---------------------------------
  O     -0.034193   -1.907240    0.577109
  N     -1.924515    1.934602   -0.476807
  N      1.529208   -0.416572   -0.212486
  C      0.619458    0.720544   -0.459447
  C     -0.402489    0.408439   -1.557098
  C     -0.037891    1.233829    0.825038
  C     -1.316896    1.624633   -1.745381
  C     -0.949850    2.413602    0.466164
  C     -3.220716    2.583020   -0.520388
  C     -4.317025    1.505550   -0.642916
  C      2.900809   -0.157771   -0.569438
  C      1.177358   -1.576441    0.261543
  C     -4.900554    1.264636    0.720284
  C      2.181555   -2.648097    0.541346
  C      3.379968   -0.589327   -1.798278
  C      3.705821    0.572351    0.291947
  C      2.751529   -2.465322    1.955216
  C     -4.622380    0.094433    1.414343
  C     -5.657139    2.247076    1.348458
  C      4.685461   -0.299206   -2.156334
  C      5.010832    0.854577   -0.075625
  C      5.500380    0.418351   -1.295701
  C     -5.068932   -0.082501    2.714784
  C     -6.105259    2.075470    2.646167
  C     -5.803072    0.914145    3.338789
  H      1.267124    1.521127   -0.834961
  H     -1.033609   -0.442566   -1.299405
  H      0.117545    0.183391   -2.489774
  H      0.729038    1.552617    1.532525
  H     -0.659999    0.479461    1.309179
  H     -0.729089    2.470891   -2.144274
  H     -2.094161    1.379373   -2.468014
  H     -1.452689    2.759688    1.369025
  H     -0.340944    3.244459    0.066792
  H     -3.358899    3.125683    0.415195
  H     -3.300262    3.305993   -1.342915
  H     -3.894332    0.579258   -1.032752
  H     -5.080959    1.849940   -1.340163
  H      2.991868   -2.628786   -0.185267
  H      1.665411   -3.607144    0.490051
  H      2.737073   -1.145289   -2.463994
  H      3.315585    0.918452    1.236965
  H      3.419469   -3.291927    2.176116
  H      1.954122   -2.462287    2.693215
  H      3.315032   -1.539628    2.032435
  H     -4.065053   -0.693880    0.927623
  H     -5.903928    3.151796    0.813313
  H      5.062447   -0.632857   -3.109937
  H      5.642003    1.418052    0.592935
  H      6.516544    0.641828   -1.578502
  H     -4.862360   -1.006593    3.236444
  H     -6.696613    2.845744    3.117952
  H     -6.153518    0.775947    4.350419
  H     -0.749631   -1.247233    0.459045

----------------------------
CARTESIAN COORDINATES (A.U.)
----------------------------
  NO LB      ZA    FRAG     MASS         X           Y           Z
   0 O     8.0000    0    15.999   -0.064615   -3.604162    1.090577
   1 N     7.0000    0    14.007   -3.636806    3.655867   -0.901034
   2 N     7.0000    0    14.007    2.889785   -0.787206   -0.401540
   3 C     6.0000    0    12.011    1.170607    1.361631   -0.868229
   4 C     6.0000    0    12.011   -0.760593    0.771837   -2.942490
   5 C     6.0000    0    12.011   -0.071604    2.331598    1.559095
   6 C     6.0000    0    12.011   -2.488573    3.070111   -3.298292
   7 C     6.0000    0    12.011   -1.794956    4.561047    0.880923
   8 C     6.0000    0    12.011   -6.086271    4.881201   -0.983391
   9 C     6.0000    0    12.011   -8.157995    2.845078   -1.214935
  10 C     6.0000    0    12.011    5.481734   -0.298143   -1.076082
  11 C     6.0000    0    12.011    2.224885   -2.979042    0.494245
  12 C     6.0000    0    12.011   -9.260706    2.389816    1.361140
  13 C     6.0000    0    12.011    4.122542   -5.004179    1.022996
  14 C     6.0000    0    12.011    6.387214   -1.113666   -3.398254
  15 C     6.0000    0    12.011    7.002987    1.081586    0.551699
  16 C     6.0000    0    12.011    5.199636   -4.658784    3.694822
  17 C     6.0000    0    12.011   -8.735032    0.178452    2.672721
  18 C     6.0000    0    12.011  -10.690443    4.246358    2.548216
  19 C     6.0000    0    12.011    8.854239   -0.565417   -4.074881
  20 C     6.0000    0    12.011    9.469100    1.614916   -0.142911
  21 C     6.0000    0    12.011   10.394212    0.790569   -2.448519
  22 C     6.0000    0    12.011   -9.578894   -0.155904    5.130199
  23 C     6.0000    0    12.011  -11.537267    3.922070    5.000531
  24 C     6.0000    0    12.011  -10.966217    1.727484    6.309397
  25 H     1.0000    0     1.008    2.394517    2.874514   -1.577847
  26 H     1.0000    0     1.008   -1.953239   -0.836328   -2.455519
  27 H     1.0000    0     1.008    0.222128    0.346559   -4.704991
  28 H     1.0000    0     1.008    1.377681    2.934021    2.896053
  29 H     1.0000    0     1.008   -1.247217    0.906051    2.473990
  30 H     1.0000    0     1.008   -1.377779    4.669308   -4.052090
  31 H     1.0000    0     1.008   -3.957391    2.606638   -4.663871
  32 H     1.0000    0     1.008   -2.745185    5.215055    2.587082
  33 H     1.0000    0     1.008   -0.644290    6.131140    0.126218
  34 H     1.0000    0     1.008   -6.347400    5.906685    0.784605
  35 H     1.0000    0     1.008   -6.236591    6.247422   -2.537742
  36 H     1.0000    0     1.008   -7.359220    1.094639   -1.951618
  37 H     1.0000    0     1.008   -9.601620    3.495880   -2.532542
  38 H     1.0000    0     1.008    5.653810   -4.967686   -0.350104
  39 H     1.0000    0     1.008    3.147170   -6.816515    0.926062
  40 H     1.0000    0     1.008    5.172317   -2.164283   -4.656275
  41 H     1.0000    0     1.008    6.265547    1.735623    2.337525
  42 H     1.0000    0     1.008    6.461859   -6.220840    4.112263
  43 H     1.0000    0     1.008    3.692756   -4.653048    5.089438
  44 H     1.0000    0     1.008    6.264503   -2.909476    3.840745
  45 H     1.0000    0     1.008   -7.681837   -1.311243    1.752954
  46 H     1.0000    0     1.008  -11.156807    5.956031    1.536939
  47 H     1.0000    0     1.008    9.566638   -1.195926   -5.876928
  48 H     1.0000    0     1.008   10.661841    2.679729    1.120485
  49 H     1.0000    0     1.008   12.314484    1.212879   -2.982936
  50 H     1.0000    0     1.008   -9.188528   -1.902186    6.115993
  51 H     1.0000    0     1.008  -12.654764    5.377677    5.892076
  52 H     1.0000    0     1.008  -11.628463    1.466327    8.221101
  53 H     1.0000    0     1.008   -1.416598   -2.356929    0.867470

--------------------------------
INTERNAL COORDINATES (ANGSTROEM)
--------------------------------
 O      0   0   0     0.000000000000     0.00000000     0.00000000
 N      1   0   0     4.409513206716     0.00000000     0.00000000
 N      1   2   0     2.299951001328    69.18566019     0.00000000
 C      3   1   2     1.477046660248    97.91432841     0.25265931
 C      4   3   1     1.531869387837   111.95337696   295.19091713
 C      4   3   1     1.531492973288   112.46726708    63.03060145
 C      2   1   3     1.440333678891    80.91838470    56.77591604
 C      2   1   3     1.438265613722    80.96447999   303.32955514
 C      2   1   3     1.449993942899   141.26274012   178.37449310
 C      9   2   1     1.542027370183   108.99396968   335.61200090
 C      3   1   2     1.440722248256   148.06240641   182.62743828
 C      1   2   3     1.294938416059    96.90786015     0.12241002
 C     10   9   2     1.502285144531   108.42750622    99.32530024
 C     12   1   2     1.495041011824   113.56016945   177.51333534
 C     11   3   1     1.387761869069   119.48762676    79.92194278
 C     11   3   1     1.386761089887   119.55955975   256.94542975
 C     14  12   1     1.535351556485   109.65562279   268.74682023
 C     13  10   9     1.388695270032   120.72021896   252.50449167
 C     13  10   9     1.390039774284   120.54052314    68.20224506
 C     15  11   3     1.384444725061   119.30303833   177.83354439
 C     16  11   3     1.384851689438   119.30513835   182.04877386
 C     21  16  11     1.385111495491   120.17708192     0.44202151
 C     18  13  10     1.386312487527   120.78764360   174.66163976
 C     19  13  10     1.383585354073   120.82961743   185.32850498
 C     24  19  13     1.385538723968   120.14475533     0.00000000
 H      4   3   1     1.096090309525   104.81166992   179.18928024
 H      5   4   3     1.090379550214   112.07420030    60.41436389
 H      5   4   3     1.091313442995   109.66377178   299.88379322
 H      6   4   3     1.091029098693   109.88194372    59.09049022
 H      6   4   3     1.091091687038   112.65394431   298.16028260
 H      7   2   1     1.104891541241   112.18340000   230.21326778
 H      7   2   1     1.089262094391   109.37398011   110.13377008
 H      8   2   1     1.089853369809   109.64762473   249.26693499
 H      8   2   1     1.104802763664   112.76486920   128.43763795
 H      9   2   1     1.090364205255   108.06288530    93.95290627
 H      9   2   1     1.097983783178   112.44097923   212.82204227
 H     10   9   2     1.090256286431   110.26894172   339.07784610
 H     10   9   2     1.090116066328   109.16568151   220.40610083
 H     14  12   1     1.088552228590   111.24496988   147.28476149
 H     14  12   1     1.090324331532   107.68181198    27.08773773
 H     15  11   3     1.079623490946   120.03568739   357.82001744
 H     16  11   3     1.079411923722   120.18277432     1.85285523
 H     17  14  12     1.085456178104   108.97713971   175.57864718
 H     17  14  12     1.086512491734   110.69371930    56.46408281
 H     17  14  12     1.086465672839   111.06465680   294.89647428
 H     18  13  10     1.081177788715   119.51626125   353.62679597
 H     19  13  10     1.079723257632   119.51436448     5.79805279
 H     20  15  11     1.078331555160   119.57327711   179.96904419
 H     21  16  11     1.078356961007   119.57058695   180.28480287
 H     22  21  16     1.078196445759   119.92480305   179.89516986
 H     23  18  13     1.081086628198   120.01249900   178.76257028
 H     24  19  13     1.079631049583   119.91911961   180.34380452
 H     25  24  19     1.079493525397   120.32923588   180.17255472
 H      1   2   3     0.980510412922    21.86753393   180.25655060

---------------------------
INTERNAL COORDINATES (A.U.)
---------------------------
 O      0   0   0     0.000000000000     0.00000000     0.00000000
 N      1   0   0     8.332772344603     0.00000000     0.00000000
 N      1   2   0     4.346277513948    69.18566019     0.00000000
 C      3   1   2     2.791213674891    97.91432841     0.25265931
 C      4   3   1     2.894813615950   111.95337696   295.19091713
 C      4   3   1     2.894102295539   112.46726708    63.03060145
 C      2   1   3     2.721836194568    80.91838470    56.77591604
 C      2   1   3     2.717928117772    80.96447999   303.32955514
 C      2   1   3     2.740091447923   141.26274012   178.37449310
 C      9   2   1     2.914009420657   108.99396968   335.61200090
 C      3   1   2     2.722570484251   148.06240641   182.62743828
 C      1   2   3     2.447078966645    96.90786015     0.12241002
 C     10   9   2     2.838907498222   108.42750622    99.32530024
 C     12   1   2     2.825218071329   113.56016945   177.51333534
 C     11   3   1     2.622489871639   119.48762676    79.92194278
 C     11   3   1     2.620598673065   119.55955975   256.94542975
 C     14  12   1     2.901393961045   109.65562279   268.74682023
 C     13  10   9     2.624253743833   120.72021896   252.50449167
 C     13  10   9     2.626794488655   120.54052314    68.20224506
 C     15  11   3     2.616221377918   119.30303833   177.83354439
 C     16  11   3     2.616990429137   119.30513835   182.04877386
 C     21  16  11     2.617481391423   120.17708192     0.44202151
 C     18  13  10     2.619750937462   120.78764360   174.66163976
 C     19  13  10     2.614597402103   120.82961743   185.32850498
 C     24  19  13     2.618288736242   120.14475533     0.00000000
 H      4   3   1     2.071310503047   104.81166992   179.18928024
 H      5   4   3     2.060518731932   112.07420030    60.41436389
 H      5   4   3     2.062283533527   109.66377178   299.88379322
 H      6   4   3     2.061746200669   109.88194372    59.09049022
 H      6   4   3     2.061864475499   112.65394431   298.16028260
 H      7   2   1     2.087942420631   112.18340000   230.21326778
 H      7   2   1     2.058407046461   109.37398011   110.13377008
 H      8   2   1     2.059524395069   109.64762473   249.26693499
 H      8   2   1     2.087774655323   112.76486920   128.43763795
 H      9   2   1     2.060489734162   108.06288530    93.95290627
 H      9   2   1     2.074888649693   112.44097923   212.82204227
 H     10   9   2     2.060285797140   110.26894172   339.07784610
 H     10   9   2     2.060020819548   109.16568151   220.40610083
 H     14  12   1     2.057065594504   111.24496988   147.28476149
 H     14  12   1     2.060414383746   107.68181198    27.08773773
 H     15  11   3     2.040192725635   120.03568739   357.82001744
 H     16  11   3     2.039792921524   120.18277432     1.85285523
 H     17  14  12     2.051214906989   108.97713971   175.57864718
 H     17  14  12     2.053211050462   110.69371930    56.46408281
 H     17  14  12     2.053122575573   111.06465680   294.89647428
 H     18  13  10     2.043129922750   119.51626125   353.62679597
 H     19  13  10     2.040381257350   119.51436448     5.79805279
 H     20  15  11     2.037751320819   119.57327711   179.96904419
 H     21  16  11     2.037799330910   119.57058695   180.28480287
 H     22  21  16     2.037496001052   119.92480305   179.89516986
 H     23  18  13     2.042957654338   120.01249900   178.76257028
 H     24  19  13     2.040207009390   119.91911961   180.34380452
 H     25  24  19     2.039947126341   120.32923588   180.17255472
 H      1   2   3     1.852896151881    21.86753393   180.25655060

---------------------
BASIS SET INFORMATION
---------------------
There are 4 groups of distinct atoms

 Group   1 Type O   : 11s6p2d1f contracted to 5s3p2d1f pattern {62111/411/11/1}
 Group   2 Type N   : 11s6p2d1f contracted to 5s3p2d1f pattern {62111/411/11/1}
 Group   3 Type C   : 11s6p2d1f contracted to 5s3p2d1f pattern {62111/411/11/1}
 Group   4 Type H   : 5s1p contracted to 3s1p pattern {311/1}

Atom   0O    basis set group =>   1
Atom   1N    basis set group =>   2
Atom   2N    basis set group =>   2
Atom   3C    basis set group =>   3
Atom   4C    basis set group =>   3
Atom   5C    basis set group =>   3
Atom   6C    basis set group =>   3
Atom   7C    basis set group =>   3
Atom   8C    basis set group =>   3
Atom   9C    basis set group =>   3
Atom  10C    basis set group =>   3
Atom  11C    basis set group =>   3
Atom  12C    basis set group =>   3
Atom  13C    basis set group =>   3
Atom  14C    basis set group =>   3
Atom  15C    basis set group =>   3
Atom  16C    basis set group =>   3
Atom  17C    basis set group =>   3
Atom  18C    basis set group =>   3
Atom  19C    basis set group =>   3
Atom  20C    basis set group =>   3
Atom  21C    basis set group =>   3
Atom  22C    basis set group =>   3
Atom  23C    basis set group =>   3
Atom  24C    basis set group =>   3
Atom  25H    basis set group =>   4
Atom  26H    basis set group =>   4
Atom  27H    basis set group =>   4
Atom  28H    basis set group =>   4
Atom  29H    basis set group =>   4
Atom  30H    basis set group =>   4
Atom  31H    basis set group =>   4
Atom  32H    basis set group =>   4
Atom  33H    basis set group =>   4
Atom  34H    basis set group =>   4
Atom  35H    basis set group =>   4
Atom  36H    basis set group =>   4
Atom  37H    basis set group =>   4
Atom  38H    basis set group =>   4
Atom  39H    basis set group =>   4
Atom  40H    basis set group =>   4
Atom  41H    basis set group =>   4
Atom  42H    basis set group =>   4
Atom  43H    basis set group =>   4
Atom  44H    basis set group =>   4
Atom  45H    basis set group =>   4
Atom  46H    basis set group =>   4
Atom  47H    basis set group =>   4
Atom  48H    basis set group =>   4
Atom  49H    basis set group =>   4
Atom  50H    basis set group =>   4
Atom  51H    basis set group =>   4
Atom  52H    basis set group =>   4
Atom  53H    basis set group =>   4
---------------------------------
AUXILIARY/J BASIS SET INFORMATION
---------------------------------
There are 4 groups of distinct atoms

 Group   1 Type O   : 12s5p4d2f1g contracted to 6s4p3d1f1g pattern {711111/2111/211/2/1}
 Group   2 Type N   : 12s5p4d2f1g contracted to 6s4p3d1f1g pattern {711111/2111/211/2/1}
 Group   3 Type C   : 12s5p4d2f1g contracted to 6s4p3d1f1g pattern {711111/2111/211/2/1}
 Group   4 Type H   : 5s2p1d contracted to 3s1p1d pattern {311/2/1}

Atom   0O    basis set group =>   1
Atom   1N    basis set group =>   2
Atom   2N    basis set group =>   2
Atom   3C    basis set group =>   3
Atom   4C    basis set group =>   3
Atom   5C    basis set group =>   3
Atom   6C    basis set group =>   3
Atom   7C    basis set group =>   3
Atom   8C    basis set group =>   3
Atom   9C    basis set group =>   3
Atom  10C    basis set group =>   3
Atom  11C    basis set group =>   3
Atom  12C    basis set group =>   3
Atom  13C    basis set group =>   3
Atom  14C    basis set group =>   3
Atom  15C    basis set group =>   3
Atom  16C    basis set group =>   3
Atom  17C    basis set group =>   3
Atom  18C    basis set group =>   3
Atom  19C    basis set group =>   3
Atom  20C    basis set group =>   3
Atom  21C    basis set group =>   3
Atom  22C    basis set group =>   3
Atom  23C    basis set group =>   3
Atom  24C    basis set group =>   3
Atom  25H    basis set group =>   4
Atom  26H    basis set group =>   4
Atom  27H    basis set group =>   4
Atom  28H    basis set group =>   4
Atom  29H    basis set group =>   4
Atom  30H    basis set group =>   4
Atom  31H    basis set group =>   4
Atom  32H    basis set group =>   4
Atom  33H    basis set group =>   4
Atom  34H    basis set group =>   4
Atom  35H    basis set group =>   4
Atom  36H    basis set group =>   4
Atom  37H    basis set group =>   4
Atom  38H    basis set group =>   4
Atom  39H    basis set group =>   4
Atom  40H    basis set group =>   4
Atom  41H    basis set group =>   4
Atom  42H    basis set group =>   4
Atom  43H    basis set group =>   4
Atom  44H    basis set group =>   4
Atom  45H    basis set group =>   4
Atom  46H    basis set group =>   4
Atom  47H    basis set group =>   4
Atom  48H    basis set group =>   4
Atom  49H    basis set group =>   4
Atom  50H    basis set group =>   4
Atom  51H    basis set group =>   4
Atom  52H    basis set group =>   4
Atom  53H    basis set group =>   4


           ************************************************************
           *        Program running with 8 parallel MPI-processes     *
           *              working on a common directory               *
           ************************************************************
------------------------------------------------------------------------------
                           ORCA GTO INTEGRAL CALCULATION
                           -- RI-GTO INTEGRALS CHOSEN --
------------------------------------------------------------------------------
------------------------------------------------------------------------------
                   ___                                                        
                  /   \      - P O W E R E D   B Y -                         
                 /     \                                                     
                 |  |  |   _    _      __       _____    __    __             
                 |  |  |  | |  | |    /  \     |  _  \  |  |  /  |          
                  \  \/   | |  | |   /    \    | | | |  |  | /  /          
                 / \  \   | |__| |  /  /\  \   | |_| |  |  |/  /          
                |  |  |   |  __  | /  /__\  \  |    /   |      \           
                |  |  |   | |  | | |   __   |  |    \   |  |\   \          
                \     /   | |  | | |  |  |  |  | |\  \  |  | \   \       
                 \___/    |_|  |_| |__|  |__|  |_| \__\ |__|  \__/        
                                                                              
                      - O R C A' S   B I G   F R I E N D -                    
                                      &                                       
                       - I N T E G R A L  F E E D E R -                       
                                                                              
 v1 FN, 2020, v2 2021                                                         
------------------------------------------------------------------------------


Reading SHARK input file Fentanyl_OProt_39.SHARKINP.tmp ... ok
----------------------
SHARK INTEGRAL PACKAGE
----------------------

Number of atoms                             ...     54
Number of basis functions                   ...    949
Number of shells                            ...    391
Maximum angular momentum                    ...      3
Integral batch strategy                     ... SHARK/LIBINT Hybrid
RI-J (if used) integral strategy            ... SPLIT-RIJ (Revised 2003 algorithm where possible)
Printlevel                                  ...      1
Contraction scheme used                     ... SEGMENTED contraction
Coulomb Range Separation                    ... NOT USED
Exchange Range Separation                   ... Long Range
   Mu parameter                             ...  0.300000
   Scaling (regular/separated)              ...  0.167000  0.833000
Finite Nucleus Model                        ... NOT USED
Auxiliary Coulomb fitting basis             ... AVAILABLE
   # of basis functions in Aux-J            ...   1544
   # of shells in Aux-J                     ...    520
   Maximum angular momentum in Aux-J        ...      4
Auxiliary J/K fitting basis                 ... NOT available
Auxiliary Correlation fitting basis         ... NOT available
Auxiliary 'external' fitting basis          ... NOT available
Integral threshold                          ...     2.500000e-11
Primitive cut-off                           ...     2.500000e-12
Primitive pair pre-selection threshold      ...     2.500000e-12

Calculating pre-screening integrals         ... done (  0.1 sec) Dimension = 391
Organizing shell pair data                  ... done (  0.6 sec)
Shell pair information
Total number of shell pairs                 ...     76636
Shell pairs after pre-screening             ...     49683
Total number of primitive shell pairs       ...    228112
Primitive shell pairs kept                  ...     97919
          la=0 lb=0:  14475 shell pairs
          la=1 lb=0:  14869 shell pairs
          la=1 lb=1:   3862 shell pairs
          la=2 lb=0:   6653 shell pairs
          la=2 lb=1:   3409 shell pairs
          la=2 lb=2:    777 shell pairs
          la=3 lb=0:   3113 shell pairs
          la=3 lb=1:   1633 shell pairs
          la=3 lb=2:    712 shell pairs
          la=3 lb=3:    180 shell pairs

Calculating one electron integrals          ... done (  0.1 sec)
Calculating RI/J V-Matrix + Cholesky decomp.... done (  0.2 sec)
Calculating Nuclear repulsion               ... done (  0.0 sec) ENN=   2187.934127132386 Eh

SHARK setup successfully completed in   2.0 seconds

Maximum memory used throughout the entire GTOINT-calculation: 73.8 MB
[1703434110.178563] [gra290:26572:0]          mpool.c:42   UCX  WARN  object 0xbfd5e80 was not returned to mpool ucp_requests
[1703434110.178617] [gra290:26572:0]          mpool.c:42   UCX  WARN  object 0xbfd6040 was not returned to mpool ucp_requests
[1703434110.178633] [gra290:26572:0]          mpool.c:42   UCX  WARN  object 0xbfd6200 was not returned to mpool ucp_requests
[1703434110.178647] [gra290:26572:0]          mpool.c:42   UCX  WARN  object 0xbfd63c0 was not returned to mpool ucp_requests
[1703434110.178660] [gra290:26572:0]          mpool.c:42   UCX  WARN  object 0xbfd6580 was not returned to mpool ucp_requests
[1703434110.178676] [gra290:26572:0]          mpool.c:42   UCX  WARN  object 0xbfd6740 was not returned to mpool ucp_requests
[1703434110.178688] [gra290:26572:0]          mpool.c:42   UCX  WARN  object 0xbfd6900 was not returned to mpool ucp_requests
[1703434110.178699] [gra290:26572:0]          mpool.c:42   UCX  WARN  object 0xbfd6ac0 was not returned to mpool ucp_requests
[1703434110.178711] [gra290:26572:0]          mpool.c:42   UCX  WARN  object 0xbfd6c80 was not returned to mpool ucp_requests
[1703434110.178722] [gra290:26572:0]          mpool.c:42   UCX  WARN  object 0xbfd6e40 was not returned to mpool ucp_requests
[1703434110.178736] [gra290:26572:0]          mpool.c:42   UCX  WARN  object 0xbfd7000 was not returned to mpool ucp_requests
[1703434110.178747] [gra290:26572:0]          mpool.c:42   UCX  WARN  object 0xbfd71c0 was not returned to mpool ucp_requests
[1703434110.179942] [gra290:26566:0]          mpool.c:42   UCX  WARN  object 0xaad0d40 was not returned to mpool ucp_requests
[1703434110.180053] [gra290:26566:0]          mpool.c:42   UCX  WARN  object 0xaad0f00 was not returned to mpool ucp_requests
[1703434110.180124] [gra290:26566:0]          mpool.c:42   UCX  WARN  object 0xaad10c0 was not returned to mpool ucp_requests
[1703434110.180194] [gra290:26566:0]          mpool.c:42   UCX  WARN  object 0xaad1280 was not returned to mpool ucp_requests
[1703434110.180262] [gra290:26566:0]          mpool.c:42   UCX  WARN  object 0xaad1440 was not returned to mpool ucp_requests
[1703434110.180331] [gra290:26566:0]          mpool.c:42   UCX  WARN  object 0xaad1600 was not returned to mpool ucp_requests
[1703434110.180399] [gra290:26566:0]          mpool.c:42   UCX  WARN  object 0xaad17c0 was not returned to mpool ucp_requests
[1703434110.180468] [gra290:26566:0]          mpool.c:42   UCX  WARN  object 0xaad1980 was not returned to mpool ucp_requests
[1703434110.180537] [gra290:26566:0]          mpool.c:42   UCX  WARN  object 0xaad1b40 was not returned to mpool ucp_requests
[1703434110.180556] [gra290:26568:0]          mpool.c:42   UCX  WARN  object 0xb4fee80 was not returned to mpool ucp_requests
[1703434110.180581] [gra290:26568:0]          mpool.c:42   UCX  WARN  object 0xb4ff040 was not returned to mpool ucp_requests
[1703434110.180589] [gra290:26568:0]          mpool.c:42   UCX  WARN  object 0xb4ff200 was not returned to mpool ucp_requests
[1703434110.180595] [gra290:26568:0]          mpool.c:42   UCX  WARN  object 0xb4ff3c0 was not returned to mpool ucp_requests
[1703434110.180602] [gra290:26568:0]          mpool.c:42   UCX  WARN  object 0xb4ff580 was not returned to mpool ucp_requests
[1703434110.180614] [gra290:26568:0]          mpool.c:42   UCX  WARN  object 0xb4ff740 was not returned to mpool ucp_requests
[1703434110.180627] [gra290:26568:0]          mpool.c:42   UCX  WARN  object 0xb4ff900 was not returned to mpool ucp_requests
[1703434110.180633] [gra290:26568:0]          mpool.c:42   UCX  WARN  object 0xb4ffac0 was not returned to mpool ucp_requests
[1703434110.180640] [gra290:26568:0]          mpool.c:42   UCX  WARN  object 0xb4ffc80 was not returned to mpool ucp_requests
[1703434110.180653] [gra290:26568:0]          mpool.c:42   UCX  WARN  object 0xb4ffe40 was not returned to mpool ucp_requests
[1703434110.180659] [gra290:26568:0]          mpool.c:42   UCX  WARN  object 0xb500000 was not returned to mpool ucp_requests
[1703434110.180666] [gra290:26568:0]          mpool.c:42   UCX  WARN  object 0xb5001c0 was not returned to mpool ucp_requests
[1703434110.180715] [gra290:26566:0]          mpool.c:42   UCX  WARN  object 0xaad1d00 was not returned to mpool ucp_requests
[1703434110.180785] [gra290:26566:0]          mpool.c:42   UCX  WARN  object 0xaad1ec0 was not returned to mpool ucp_requests
[1703434110.180854] [gra290:26566:0]          mpool.c:42   UCX  WARN  object 0xaad2080 was not returned to mpool ucp_requests
[1703434110.181148] [gra290:26555:0]          mpool.c:42   UCX  WARN  object 0xa7bdec0 was not returned to mpool ucp_requests
[1703434110.181183] [gra290:26555:0]          mpool.c:42   UCX  WARN  object 0xa7be080 was not returned to mpool ucp_requests
[1703434110.181197] [gra290:26555:0]          mpool.c:42   UCX  WARN  object 0xa7be240 was not returned to mpool ucp_requests
[1703434110.181208] [gra290:26555:0]          mpool.c:42   UCX  WARN  object 0xa7be400 was not returned to mpool ucp_requests
[1703434110.181219] [gra290:26555:0]          mpool.c:42   UCX  WARN  object 0xa7be5c0 was not returned to mpool ucp_requests
[1703434110.181229] [gra290:26555:0]          mpool.c:42   UCX  WARN  object 0xa7be780 was not returned to mpool ucp_requests
[1703434110.181240] [gra290:26555:0]          mpool.c:42   UCX  WARN  object 0xa7be940 was not returned to mpool ucp_requests
[1703434110.181250] [gra290:26555:0]          mpool.c:42   UCX  WARN  object 0xa7beb00 was not returned to mpool ucp_requests
[1703434110.181260] [gra290:26555:0]          mpool.c:42   UCX  WARN  object 0xa7becc0 was not returned to mpool ucp_requests
[1703434110.181271] [gra290:26555:0]          mpool.c:42   UCX  WARN  object 0xa7bee80 was not returned to mpool ucp_requests
[1703434110.185926] [gra290:26560:0]          mpool.c:42   UCX  WARN  object 0xc34fb40 was not returned to mpool ucp_requests
[1703434110.185968] [gra290:26560:0]          mpool.c:42   UCX  WARN  object 0xc34fd00 was not returned to mpool ucp_requests
[1703434110.185981] [gra290:26560:0]          mpool.c:42   UCX  WARN  object 0xc34fec0 was not returned to mpool ucp_requests
[1703434110.185992] [gra290:26560:0]          mpool.c:42   UCX  WARN  object 0xc350080 was not returned to mpool ucp_requests
[1703434110.186002] [gra290:26560:0]          mpool.c:42   UCX  WARN  object 0xc350240 was not returned to mpool ucp_requests
[1703434110.186012] [gra290:26560:0]          mpool.c:42   UCX  WARN  object 0xc350400 was not returned to mpool ucp_requests
[1703434110.186022] [gra290:26560:0]          mpool.c:42   UCX  WARN  object 0xc3505c0 was not returned to mpool ucp_requests
[1703434110.186044] [gra290:26560:0]          mpool.c:42   UCX  WARN  object 0xc350780 was not returned to mpool ucp_requests
[1703434110.186063] [gra290:26560:0]          mpool.c:42   UCX  WARN  object 0xc350940 was not returned to mpool ucp_requests
[1703434110.186073] [gra290:26560:0]          mpool.c:42   UCX  WARN  object 0xc350b00 was not returned to mpool ucp_requests
[1703434110.186083] [gra290:26560:0]          mpool.c:42   UCX  WARN  object 0xc350cc0 was not returned to mpool ucp_requests
[1703434110.186093] [gra290:26560:0]          mpool.c:42   UCX  WARN  object 0xc350e80 was not returned to mpool ucp_requests
[1703434110.186178] [gra290:26563:0]          mpool.c:42   UCX  WARN  object 0xae19b40 was not returned to mpool ucp_requests
[1703434110.186207] [gra290:26563:0]          mpool.c:42   UCX  WARN  object 0xae19d00 was not returned to mpool ucp_requests
[1703434110.186222] [gra290:26563:0]          mpool.c:42   UCX  WARN  object 0xae19ec0 was not returned to mpool ucp_requests
[1703434110.186233] [gra290:26563:0]          mpool.c:42   UCX  WARN  object 0xae1a080 was not returned to mpool ucp_requests
[1703434110.186243] [gra290:26563:0]          mpool.c:42   UCX  WARN  object 0xae1a240 was not returned to mpool ucp_requests
[1703434110.186253] [gra290:26563:0]          mpool.c:42   UCX  WARN  object 0xae1a400 was not returned to mpool ucp_requests
[1703434110.186264] [gra290:26563:0]          mpool.c:42   UCX  WARN  object 0xae1a5c0 was not returned to mpool ucp_requests
[1703434110.186284] [gra290:26563:0]          mpool.c:42   UCX  WARN  object 0xae1a780 was not returned to mpool ucp_requests
[1703434110.186294] [gra290:26563:0]          mpool.c:42   UCX  WARN  object 0xae1a940 was not returned to mpool ucp_requests
[1703434110.186307] [gra290:26563:0]          mpool.c:42   UCX  WARN  object 0xae1ab00 was not returned to mpool ucp_requests
[1703434110.186316] [gra290:26563:0]          mpool.c:42   UCX  WARN  object 0xae1acc0 was not returned to mpool ucp_requests
[1703434110.186326] [gra290:26563:0]          mpool.c:42   UCX  WARN  object 0xae1ae80 was not returned to mpool ucp_requests
[1703434110.190073] [gra290:26569:0]          mpool.c:42   UCX  WARN  object 0xc4bcd40 was not returned to mpool ucp_requests
[1703434110.190110] [gra290:26569:0]          mpool.c:42   UCX  WARN  object 0xc4bcf00 was not returned to mpool ucp_requests
[1703434110.190130] [gra290:26569:0]          mpool.c:42   UCX  WARN  object 0xc4bd0c0 was not returned to mpool ucp_requests
[1703434110.190141] [gra290:26569:0]          mpool.c:42   UCX  WARN  object 0xc4bd280 was not returned to mpool ucp_requests
[1703434110.190152] [gra290:26569:0]          mpool.c:42   UCX  WARN  object 0xc4bd440 was not returned to mpool ucp_requests
[1703434110.190169] [gra290:26569:0]          mpool.c:42   UCX  WARN  object 0xc4bd600 was not returned to mpool ucp_requests
[1703434110.190180] [gra290:26569:0]          mpool.c:42   UCX  WARN  object 0xc4bd7c0 was not returned to mpool ucp_requests
[1703434110.190190] [gra290:26569:0]          mpool.c:42   UCX  WARN  object 0xc4bd980 was not returned to mpool ucp_requests
[1703434110.190200] [gra290:26569:0]          mpool.c:42   UCX  WARN  object 0xc4bdb40 was not returned to mpool ucp_requests
[1703434110.190209] [gra290:26569:0]          mpool.c:42   UCX  WARN  object 0xc4bdd00 was not returned to mpool ucp_requests
[1703434110.190219] [gra290:26569:0]          mpool.c:42   UCX  WARN  object 0xc4bdec0 was not returned to mpool ucp_requests
[1703434110.190229] [gra290:26569:0]          mpool.c:42   UCX  WARN  object 0xc4be080 was not returned to mpool ucp_requests


           ************************************************************
           *        Program running with 8 parallel MPI-processes     *
           *              working on a common directory               *
           ************************************************************
-------------------------------------------------------------------------------
                                 ORCA SCF
-------------------------------------------------------------------------------

------------
SCF SETTINGS
------------
Hamiltonian:
 Density Functional     Method          .... DFT(GTOs)
 Exchange Functional    Exchange        .... WB97X-V
 Correlation Functional Correlation     .... WB97X-V
 Gradients option       PostSCFGGA      .... off
 Hybrid DFT is turned on
   Fraction HF Exchange ScalHFX         ....  0.167000
   Scaling of DF-GGA-X  ScalDFX         ....  0.000000
   Scaling of DF-GGA-C  ScalDFC         ....  1.000000
   Scaling of DF-LDA-C  ScalLDAC        ....  1.000000
   Perturbative correction              ....  0.000000
   Density functional embedding theory  .... OFF
 Long-range corrected/Screened/Range-Separated Hybrid DFT is turned on
   Amount of maximum screened exact exchange              ....  0.833000
   Range separation parameter mu (erf(mu*r12)/r12)        ....  0.300000
 RI-approximation to the Coulomb term is turned on
   Number of AuxJ basis functions       .... 1544
   RIJ-COSX (HFX calculated with COS-X)).... on


General Settings:
 Integral files         IntName         .... Fentanyl_OProt_39
 Hartree-Fock type      HFTyp           .... RHF
 Total Charge           Charge          ....    1
 Multiplicity           Mult            ....    1
 Number of Electrons    NEL             ....  182
 Basis Dimension        Dim             ....  949
 Nuclear Repulsion      ENuc            ....   2187.9341271324 Eh

Convergence Acceleration:
 DIIS                   CNVDIIS         .... on
   Start iteration      DIISMaxIt       ....    12
   Startup error        DIISStart       ....  0.200000
   # of expansion vecs  DIISMaxEq       ....     5
   Bias factor          DIISBfac        ....   1.050
   Max. coefficient     DIISMaxC        ....  10.000
 Trust-Rad. Augm. Hess. CNVTRAH         .... auto
   Auto Start mean grad. ratio tolernc. ....  1.125000
   Auto Start start iteration           ....    20
   Auto Start num. interpolation iter.  ....    10
   Max. Number of Micro iterations      ....    16
   Max. Number of Macro iterations      .... Maxiter - #DIIS iter
   Number of Davidson start vectors     ....     2
   Converg. threshold I  (grad. norm)   ....   1.000e-05
   Converg. threshold II (energy diff.) ....   1.000e-08
   Grad. Scal. Fac. for Micro threshold ....   0.100
   Minimum threshold for Micro iter.    ....   0.010
   NR start threshold (gradient norm)   ....   0.001
   Initial trust radius                 ....   0.400
   Minimum AH scaling param. (alpha)    ....   1.000
   Maximum AH scaling param. (alpha)    .... 1000.000
   Orbital update algorithm             .... Taylor
   White noise on init. David. guess    .... on
   Maximum white noise                  ....   0.010
   Quad. conv. algorithm                .... NR
 SOSCF                  CNVSOSCF        .... on
   Start iteration      SOSCFMaxIt      ....   150
   Startup grad/error   SOSCFStart      ....  0.003300
 Level Shifting         CNVShift        .... on
   Level shift para.    LevelShift      ....    0.2500
   Turn off err/grad.   ShiftErr        ....    0.0010
 Zerner damping         CNVZerner       .... off
 Static damping         CNVDamp         .... on
   Fraction old density DampFac         ....    0.7000
   Max. Damping (<1)    DampMax         ....    0.9800
   Min. Damping (>=0)   DampMin         ....    0.0000
   Turn off err/grad.   DampErr         ....    0.1000
 Fernandez-Rico         CNVRico         .... off

SCF Procedure:
 Maximum # iterations   MaxIter         ....   125
 SCF integral mode      SCFMode         .... Direct
   Integral package                     .... SHARK and LIBINT hybrid scheme
 Reset frequency        DirectResetFreq ....    20
 Integral Threshold     Thresh          ....  2.500e-11 Eh
 Primitive CutOff       TCut            ....  2.500e-12 Eh

Convergence Tolerance:
 Convergence Check Mode ConvCheckMode   .... Total+1el-Energy
 Convergence forced     ConvForced      .... 0
 Energy Change          TolE            ....  1.000e-08 Eh
 1-El. energy change                    ....  1.000e-05 Eh
 Orbital Gradient       TolG            ....  1.000e-05
 Orbital Rotation angle TolX            ....  1.000e-05
 DIIS Error             TolErr          ....  5.000e-07


Diagonalization of the overlap matrix:
Smallest eigenvalue                        ... 6.819e-06
Time for diagonalization                   ...    0.269 sec
Threshold for overlap eigenvalues          ... 1.000e-08
Number of eigenvalues below threshold      ... 0
Time for construction of square roots      ...    0.184 sec
Total time needed                          ...    0.459 sec

Time for model grid setup =    0.503 sec

------------------------------
INITIAL GUESS: MODEL POTENTIAL
------------------------------
Loading Hartree-Fock densities                     ... done
Calculating cut-offs                               ... done
Initializing the effective Hamiltonian             ... done
Setting up the integral package (SHARK)            ... done
Starting the Coulomb interaction                   ... done (   1.2 sec)
Reading the grid                                   ... done
Mapping shells                                     ... done
Starting the XC term evaluation                    ... done (   0.6 sec)
  promolecular density results
     # of electrons  =    182.991555349
     EX              =    -95.406232086
     EC              =     -7.500473641
     EX+EC           =   -102.906705728
Transforming the Hamiltonian                       ... done (   0.2 sec)
Diagonalizing the Hamiltonian                      ... done (   0.3 sec)
Back transforming the eigenvectors                 ... done (   0.1 sec)
Now organizing SCF variables                       ... done
                      ------------------
                      INITIAL GUESS DONE (   2.8 sec)
                      ------------------
-------------------
DFT GRID GENERATION
-------------------

General Integration Accuracy     IntAcc      ... 4.959
Radial Grid Type                 RadialGrid  ... OptM3 with GC (2021)
Angular Grid (max. ang.)         AngularGrid ... 6 (Lebedev-590)
Angular grid pruning method      GridPruning ... 4 (adaptive)
Weight generation scheme         WeightScheme... Becke
Basis function cutoff            BFCut       ... 1.0000e-11
Integration weight cutoff        WCut        ... 1.0000e-14
Angular grids for H and He will be reduced by one unit
Partially contracted basis set               ... off
Rotationally invariant grid construction     ... off

Total number of grid points                  ...   596910
Total number of batches                      ...     9356
Average number of points per batch           ...       63
Average number of grid points per atom       ...    11054
Time for grid setup =    8.516 sec

--------------------
COSX GRID GENERATION
--------------------

GRIDX 1
-------
General Integration Accuracy     IntAcc      ... 4.020
Radial Grid Type                 RadialGrid  ... OptM3 with GC (2021)
Angular Grid (max. ang.)         AngularGrid ... 2 (Lebedev-110)
Angular grid pruning method      GridPruning ... 4 (adaptive)
Weight generation scheme         WeightScheme... Becke
Basis function cutoff            BFCut       ... 1.0000e-11
Integration weight cutoff        WCut        ... 1.0000e-14
Angular grids for H and He will be reduced by one unit
Partially contracted basis set               ... on
Rotationally invariant grid construction     ... off

Total number of grid points                  ...    64386
Total number of batches                      ...     1030
Average number of points per batch           ...       62
Average number of grid points per atom       ...     1192
UseSFitting                                  ... on

GRIDX 2
-------
General Integration Accuracy     IntAcc      ... 4.338
Radial Grid Type                 RadialGrid  ... OptM3 with GC (2021)
Angular Grid (max. ang.)         AngularGrid ... 3 (Lebedev-194)
Angular grid pruning method      GridPruning ... 4 (adaptive)
Weight generation scheme         WeightScheme... Becke
Basis function cutoff            BFCut       ... 1.0000e-11
Integration weight cutoff        WCut        ... 1.0000e-14
Angular grids for H and He will be reduced by one unit
Partially contracted basis set               ... on
Rotationally invariant grid construction     ... off

Total number of grid points                  ...   139959
Total number of batches                      ...     2213
Average number of points per batch           ...       63
Average number of grid points per atom       ...     2592
UseSFitting                                  ... on

GRIDX 3
-------
General Integration Accuracy     IntAcc      ... 4.871
Radial Grid Type                 RadialGrid  ... OptM3 with GC (2021)
Angular Grid (max. ang.)         AngularGrid ... 4 (Lebedev-302)
Angular grid pruning method      GridPruning ... 4 (adaptive)
Weight generation scheme         WeightScheme... Becke
Basis function cutoff            BFCut       ... 1.0000e-11
[...]
 72:   1043.03   0.001068    5.40  0.000320  (-0.002834  0.008558 -0.015435)
 73:   1046.46   0.000010    0.05  0.000003  ( 0.000316 -0.000348  0.001644)
 74:   1055.02   0.000920    4.65  0.000272  (-0.009420 -0.011302 -0.007460)
 75:   1063.30   0.000151    0.76  0.000044  (-0.005398  0.002754  0.002749)
 76:   1067.98   0.000169    0.85  0.000049  ( 0.004561  0.001516 -0.005120)
 77:   1070.52   0.002468   12.47  0.000720  (-0.023591  0.012726  0.001036)
 78:   1097.97   0.006129   30.97  0.001742  ( 0.035654 -0.020608  0.006787)
 79:   1115.92   0.001854    9.37  0.000518  ( 0.014790  0.013437  0.010916)
 80:   1119.69   0.004304   21.75  0.001199  (-0.029454  0.004692  0.017604)
 81:   1120.76   0.008659   43.76  0.002411  (-0.036532 -0.018290  0.027235)
 82:   1139.16   0.002338   11.82  0.000641  (-0.012265  0.018514 -0.012139)
 83:   1162.23   0.000025    0.12  0.000007  ( 0.001471  0.002109  0.000118)
 84:   1177.36   0.000689    3.48  0.000183  (-0.001607 -0.009556 -0.009420)
 85:   1187.80   0.003750   18.95  0.000985  ( 0.024733 -0.013686 -0.013643)
 86:   1189.32   0.001018    5.15  0.000267  ( 0.010095 -0.008138 -0.009953)
 87:   1196.56   0.031202  157.68  0.008137  (-0.089390  0.006185  0.010420)
 88:   1204.16   0.000008    0.04  0.000002  (-0.000792  0.000987 -0.000655)
 89:   1206.22   0.000106    0.54  0.000027  ( 0.004215 -0.000886  0.002988)
 90:   1211.77   0.002934   14.83  0.000756  ( 0.025301 -0.002799 -0.010377)
 91:   1213.52   0.002677   13.53  0.000688  ( 0.023266 -0.008503 -0.008653)
 92:   1242.32   0.000278    1.41  0.000070  (-0.006681  0.005008 -0.000346)
 93:   1259.87   0.000409    2.07  0.000101  ( 0.004370  0.008940  0.001534)
 94:   1273.72   0.001497    7.57  0.000367  ( 0.010972  0.015406 -0.003009)
 95:   1279.81   0.000770    3.89  0.000188  (-0.002486 -0.008433  0.010511)
 96:   1289.07   0.003433   17.35  0.000831  (-0.024678 -0.006148  0.013580)
 97:   1311.05   0.001635    8.26  0.000389  (-0.002892  0.014298  0.013280)
 98:   1312.32   0.000176    0.89  0.000042  (-0.005429 -0.001088 -0.003342)
 99:   1323.46   0.002781   14.05  0.000656  ( 0.016887  0.017420 -0.008184)
100:   1335.10   0.003637   18.38  0.000850  (-0.011488  0.005166  0.026293)
101:   1350.28   0.001857    9.39  0.000429  ( 0.019394 -0.000758 -0.007246)
102:   1355.31   0.000306    1.55  0.000071  ( 0.004824 -0.005088 -0.004624)
103:   1358.91   0.001332    6.73  0.000306  (-0.014778  0.008469  0.003982)
104:   1360.34   0.000133    0.67  0.000030  (-0.000717  0.003319  0.004355)
105:   1369.28   0.003654   18.47  0.000833  ( 0.013817 -0.012389 -0.022099)
106:   1384.30   0.005886   29.75  0.001327  (-0.035750  0.000127  0.006992)
107:   1385.39   0.001531    7.73  0.000345  ( 0.011473  0.007812  0.012332)
108:   1398.10   0.001094    5.53  0.000244  (-0.014234  0.000673  0.006411)
109:   1406.27   0.000355    1.79  0.000079  ( 0.007370  0.000356 -0.004930)
110:   1416.91   0.005353   27.05  0.001179  ( 0.002927  0.026656 -0.021443)
111:   1422.45   0.002874   14.52  0.000631  ( 0.020013 -0.013766 -0.006367)
112:   1424.97   0.005199   26.27  0.001138  (-0.033563 -0.002478 -0.002426)
113:   1448.58   0.007595   38.38  0.001636  ( 0.038738 -0.011602  0.000971)
114:   1484.78   0.006029   30.47  0.001267  ( 0.031302 -0.005559  0.016013)
115:   1496.91   0.000692    3.50  0.000144  (-0.011618 -0.002993  0.000569)
116:   1499.74   0.000823    4.16  0.000171  (-0.011949  0.005275  0.000854)
117:   1503.66   0.000297    1.50  0.000062  ( 0.004454 -0.000896 -0.006402)
118:   1506.09   0.001895    9.58  0.000393  ( 0.015537  0.007682 -0.009604)
119:   1507.80   0.000536    2.71  0.000111  (-0.002762 -0.010100  0.001147)
120:   1509.63   0.000671    3.39  0.000139  ( 0.008054 -0.000399  0.008583)
121:   1510.38   0.001381    6.98  0.000285  ( 0.007345  0.009315  0.012023)
122:   1512.28   0.004357   22.02  0.000899  (-0.009906 -0.015348 -0.023777)
123:   1520.97   0.001442    7.29  0.000296  (-0.006869 -0.011979  0.010257)
124:   1527.74   0.006522   32.96  0.001332  (-0.023690  0.026119 -0.009419)
125:   1534.24   0.010785   54.50  0.002194  ( 0.032946 -0.032328  0.007943)
126:   1551.52   0.006755   34.14  0.001359  (-0.035366  0.007176  0.007509)
127:   1554.90   0.002289   11.57  0.000459  (-0.000477  0.016553 -0.013609)
128:   1670.51   0.000155    0.78  0.000029  ( 0.000230 -0.004038 -0.003542)
129:   1676.92   0.026221  132.51  0.004880  (-0.049942 -0.025685  0.041541)
130:   1680.54   0.001028    5.20  0.000191  ( 0.004576  0.007935  0.010347)
131:   1692.97   0.000316    1.59  0.000058  (-0.001936  0.005677 -0.004710)
132:   1697.41   0.048692  246.07  0.008952  ( 0.054433  0.048266 -0.060492)
133:   2963.63   0.006779   34.26  0.000714  ( 0.016458  0.021044 -0.000261)
134:   2967.67   0.016843   85.12  0.001771  (-0.018441 -0.019957  0.032137)
135:   3006.87   0.016058   81.15  0.001667  (-0.010334  0.034080 -0.019958)
136:   3079.61   0.002359   11.92  0.000239  (-0.008883  0.002548 -0.012394)
137:   3083.31   0.003523   17.80  0.000357  ( 0.011526 -0.004959  0.014111)
138:   3083.88   0.001428    7.21  0.000144  (-0.004697 -0.003831 -0.010379)
139:   3085.43   0.003177   16.06  0.000321  (-0.009023  0.015283  0.002523)
140:   3108.04   0.000575    2.90  0.000058  (-0.003025  0.000725 -0.006929)
141:   3113.71   0.000799    4.04  0.000080  (-0.005986 -0.005677  0.003461)
142:   3114.33   0.000258    1.30  0.000026  (-0.002328 -0.000659 -0.004468)
143:   3125.35   0.001221    6.17  0.000122  (-0.010542 -0.003262 -0.000417)
144:   3127.43   0.002673   13.51  0.000267  ( 0.000675  0.010099  0.012816)
145:   3133.23   0.002552   12.90  0.000254  (-0.005546  0.009761  0.011322)
146:   3138.05   0.005321   26.89  0.000529  (-0.011244 -0.003878  0.019690)
147:   3144.28   0.002925   14.78  0.000290  ( 0.014326  0.008936  0.002284)
148:   3159.86   0.001602    8.10  0.000158  (-0.009408 -0.006840  0.004791)
149:   3171.44   0.000782    3.95  0.000077  ( 0.002219 -0.008387  0.001289)
150:   3181.30   0.001266    6.40  0.000124  ( 0.000324  0.002449 -0.010868)
151:   3187.96   0.000900    4.55  0.000088  ( 0.001538 -0.009256 -0.000131)
152:   3189.51   0.000766    3.87  0.000075  (-0.007709  0.001095  0.003785)
153:   3200.52   0.000572    2.89  0.000056  ( 0.000333 -0.000535  0.007440)
154:   3209.29   0.000441    2.23  0.000043  (-0.006007  0.001103  0.002361)
155:   3209.47   0.002597   13.12  0.000252  (-0.002698  0.012428  0.009526)
156:   3212.16   0.000033    0.16  0.000003  ( 0.001558  0.000136 -0.000847)
157:   3220.17   0.000465    2.35  0.000045  (-0.006313  0.000353  0.002245)
158:   3223.15   0.001098    5.55  0.000106  (-0.001022  0.006245 -0.008141)
159:   3228.97   0.000231    1.17  0.000022  (-0.000763 -0.002522 -0.003919)
160:   3237.27   0.000085    0.43  0.000008  ( 0.002730 -0.000025 -0.000833)
161:   3719.89   0.056028  283.14  0.004700  ( 0.059708 -0.032644  0.008338)

* The epsilon (eps) is given for a Dirac delta lineshape.
** The dipole moment derivative (T) already includes vibrational overlap.

The first frequency considered to be a vibration is 6
The total number of vibrations considered is 156


--------------------------
THERMOCHEMISTRY AT 298.15K
--------------------------

Temperature         ... 298.15 K
Pressure            ... 1.00 atm
Total Mass          ... 337.49 AMU

Throughout the following assumptions are being made:
  (1) The electronic state is orbitally nondegenerate
  (2) There are no thermally accessible electronically excited states
  (3) Hindered rotations indicated by low frequency modes are not
      treated as such but are treated as vibrations and this may
      cause some error
  (4) All equations used are the standard statistical mechanics
      equations for an ideal gas
  (5) All vibrations are strictly harmonic

freq.      10.67  E(vib)   ...       0.58 
freq.      22.42  E(vib)   ...       0.56 
freq.      27.33  E(vib)   ...       0.55 
freq.      40.63  E(vib)   ...       0.54 
freq.      42.53  E(vib)   ...       0.53 
freq.      59.19  E(vib)   ...       0.51 
freq.      65.85  E(vib)   ...       0.50 
freq.      75.76  E(vib)   ...       0.49 
freq.      82.91  E(vib)   ...       0.48 
freq.     117.16  E(vib)   ...       0.44 
freq.     143.92  E(vib)   ...       0.41 
freq.     164.89  E(vib)   ...       0.39 
freq.     197.27  E(vib)   ...       0.35 
freq.     209.35  E(vib)   ...       0.34 
freq.     228.99  E(vib)   ...       0.32 
freq.     232.50  E(vib)   ...       0.32 
freq.     242.77  E(vib)   ...       0.31 
freq.     252.04  E(vib)   ...       0.30 
freq.     293.55  E(vib)   ...       0.27 
freq.     320.85  E(vib)   ...       0.25 
freq.     345.96  E(vib)   ...       0.23 
freq.     360.12  E(vib)   ...       0.22 
freq.     395.09  E(vib)   ...       0.20 
freq.     398.34  E(vib)   ...       0.20 
freq.     422.00  E(vib)   ...       0.18 
freq.     422.45  E(vib)   ...       0.18 
freq.     442.25  E(vib)   ...       0.17 
freq.     470.54  E(vib)   ...       0.15 
freq.     475.53  E(vib)   ...       0.15 
freq.     479.35  E(vib)   ...       0.15 
freq.     509.61  E(vib)   ...       0.14 
freq.     541.26  E(vib)   ...       0.12 
freq.     550.63  E(vib)   ...       0.12 
freq.     584.62  E(vib)   ...       0.11 
freq.     608.47  E(vib)   ...       0.10 
freq.     612.54  E(vib)   ...       0.10 
freq.     637.64  E(vib)   ...       0.09 
freq.     638.67  E(vib)   ...       0.09 
freq.     681.01  E(vib)   ...       0.08 
freq.     725.82  E(vib)   ...       0.06 
freq.     729.38  E(vib)   ...       0.06 
freq.     737.78  E(vib)   ...       0.06 
freq.     770.70  E(vib)   ...       0.05 
freq.     783.22  E(vib)   ...       0.05 
freq.     789.09  E(vib)   ...       0.05 
freq.     793.19  E(vib)   ...       0.05 
freq.     802.95  E(vib)   ...       0.05 
freq.     811.95  E(vib)   ...       0.05 
freq.     834.63  E(vib)   ...       0.04 
freq.     865.28  E(vib)   ...       0.04 
freq.     874.60  E(vib)   ...       0.04 
freq.     886.86  E(vib)   ...       0.04 
freq.     922.68  E(vib)   ...       0.03 
freq.     942.48  E(vib)   ...       0.03 
freq.     966.58  E(vib)   ...       0.03 
freq.     966.78  E(vib)   ...       0.03 
freq.     972.50  E(vib)   ...       0.03 
freq.     979.58  E(vib)   ...       0.03 
freq.    1002.91  E(vib)   ...       0.02 
freq.    1015.72  E(vib)   ...       0.02 
freq.    1018.69  E(vib)   ...       0.02 
freq.    1019.86  E(vib)   ...       0.02 
freq.    1021.50  E(vib)   ...       0.02 
freq.    1027.21  E(vib)   ...       0.02 
freq.    1034.86  E(vib)   ...       0.02 
freq.    1036.09  E(vib)   ...       0.02 
freq.    1043.03  E(vib)   ...       0.02 
freq.    1046.46  E(vib)   ...       0.02 
freq.    1055.02  E(vib)   ...       0.02 
freq.    1063.30  E(vib)   ...       0.02 
freq.    1067.98  E(vib)   ...       0.02 
freq.    1070.52  E(vib)   ...       0.02 
freq.    1097.97  E(vib)   ...       0.02 
freq.    1115.92  E(vib)   ...       0.01 
freq.    1119.69  E(vib)   ...       0.01 
freq.    1120.76  E(vib)   ...       0.01 
freq.    1139.16  E(vib)   ...       0.01 
freq.    1162.23  E(vib)   ...       0.01 
freq.    1177.36  E(vib)   ...       0.01 
freq.    1187.80  E(vib)   ...       0.01 
freq.    1189.32  E(vib)   ...       0.01 
freq.    1196.56  E(vib)   ...       0.01 
freq.    1204.16  E(vib)   ...       0.01 
freq.    1206.22  E(vib)   ...       0.01 
freq.    1211.77  E(vib)   ...       0.01 
freq.    1213.52  E(vib)   ...       0.01 
freq.    1242.32  E(vib)   ...       0.01 
freq.    1259.87  E(vib)   ...       0.01 
freq.    1273.72  E(vib)   ...       0.01 
freq.    1279.81  E(vib)   ...       0.01 
freq.    1289.07  E(vib)   ...       0.01 
freq.    1311.05  E(vib)   ...       0.01 
freq.    1312.32  E(vib)   ...       0.01 
freq.    1323.46  E(vib)   ...       0.01 
freq.    1335.10  E(vib)   ...       0.01 
freq.    1350.28  E(vib)   ...       0.01 
freq.    1355.31  E(vib)   ...       0.01 
freq.    1358.91  E(vib)   ...       0.01 
freq.    1360.34  E(vib)   ...       0.01 
freq.    1369.28  E(vib)   ...       0.01 
freq.    1384.30  E(vib)   ...       0.00 
freq.    1385.39  E(vib)   ...       0.00 
freq.    1398.10  E(vib)   ...       0.00 
freq.    1406.27  E(vib)   ...       0.00 
freq.    1416.91  E(vib)   ...       0.00 
freq.    1422.45  E(vib)   ...       0.00 
freq.    1424.97  E(vib)   ...       0.00 
freq.    1448.58  E(vib)   ...       0.00 
freq.    1484.78  E(vib)   ...       0.00 
freq.    1496.91  E(vib)   ...       0.00 
freq.    1499.74  E(vib)   ...       0.00 
freq.    1503.66  E(vib)   ...       0.00 
freq.    1506.09  E(vib)   ...       0.00 
freq.    1507.80  E(vib)   ...       0.00 
freq.    1509.63  E(vib)   ...       0.00 
freq.    1510.38  E(vib)   ...       0.00 
freq.    1512.28  E(vib)   ...       0.00 
freq.    1520.97  E(vib)   ...       0.00 
freq.    1527.74  E(vib)   ...       0.00 
freq.    1534.24  E(vib)   ...       0.00 
freq.    1551.52  E(vib)   ...       0.00 
freq.    1554.90  E(vib)   ...       0.00 
freq.    1670.51  E(vib)   ...       0.00 
freq.    1676.92  E(vib)   ...       0.00 
freq.    1680.54  E(vib)   ...       0.00 
freq.    1692.97  E(vib)   ...       0.00 
freq.    1697.41  E(vib)   ...       0.00 
freq.    2963.63  E(vib)   ...       0.00 
freq.    2967.67  E(vib)   ...       0.00 
freq.    3006.87  E(vib)   ...       0.00 
freq.    3079.61  E(vib)   ...       0.00 
freq.    3083.31  E(vib)   ...       0.00 
freq.    3083.88  E(vib)   ...       0.00 
freq.    3085.43  E(vib)   ...       0.00 
freq.    3108.04  E(vib)   ...       0.00 
freq.    3113.71  E(vib)   ...       0.00 
freq.    3114.33  E(vib)   ...       0.00 
freq.    3125.35  E(vib)   ...       0.00 
freq.    3127.43  E(vib)   ...       0.00 
freq.    3133.23  E(vib)   ...       0.00 
freq.    3138.05  E(vib)   ...       0.00 
freq.    3144.28  E(vib)   ...       0.00 
freq.    3159.86  E(vib)   ...       0.00 
freq.    3171.44  E(vib)   ...       0.00 
freq.    3181.30  E(vib)   ...       0.00 
freq.    3187.96  E(vib)   ...       0.00 
freq.    3189.51  E(vib)   ...       0.00 
freq.    3200.52  E(vib)   ...       0.00 
freq.    3209.29  E(vib)   ...       0.00 
freq.    3209.47  E(vib)   ...       0.00 
freq.    3212.16  E(vib)   ...       0.00 
freq.    3220.17  E(vib)   ...       0.00 
freq.    3223.15  E(vib)   ...       0.00 
freq.    3228.97  E(vib)   ...       0.00 
freq.    3237.27  E(vib)   ...       0.00 
freq.    3719.89  E(vib)   ...       0.00 

------------
INNER ENERGY
------------

The inner energy is: U= E(el) + E(ZPE) + E(vib) + E(rot) + E(trans)
    E(el)   - is the total energy from the electronic structure calculation
              = E(kin-el) + E(nuc-el) + E(el-el) + E(nuc-nuc)
    E(ZPE)  - the the zero temperature vibrational energy from the frequency calculation
    E(vib)  - the the finite temperature correction to E(ZPE) due to population
              of excited vibrational states
    E(rot)  - is the rotational thermal energy
    E(trans)- is the translational thermal energy

Summary of contributions to the inner energy U:
Electronic energy                ...  -1041.20895807 Eh
Zero point energy                ...      0.47932849 Eh     300.78 kcal/mol
Thermal vibrational correction   ...      0.02018043 Eh      12.66 kcal/mol
Thermal rotational correction    ...      0.00141627 Eh       0.89 kcal/mol
Thermal translational correction ...      0.00141627 Eh       0.89 kcal/mol
-----------------------------------------------------------------------
Total thermal energy                  -1040.70661661 Eh


Summary of corrections to the electronic energy:
(perhaps to be used in another calculation)
Total thermal correction                  0.02301297 Eh      14.44 kcal/mol
Non-thermal (ZPE) correction              0.47932849 Eh     300.78 kcal/mol
-----------------------------------------------------------------------
Total correction                          0.50234146 Eh     315.22 kcal/mol


--------
ENTHALPY
--------

The enthalpy is H = U + kB*T
                kB is Boltzmann's constant
Total free energy                 ...  -1040.70661661 Eh 
Thermal Enthalpy correction       ...      0.00094421 Eh       0.59 kcal/mol
-----------------------------------------------------------------------
Total Enthalpy                    ...  -1040.70567240 Eh


Note: Only C1 symmetry has been detected, increase convergence thresholds 
      if your molecule has a higher symmetry. Symmetry factor of 1.0 is   
      used for the rotational entropy correction. 
 

Note: Rotational entropy computed according to Herzberg 
Infrared and Raman Spectra, Chapter V,1, Van Nostrand Reinhold, 1945 
Point Group:  C1, Symmetry Number:   1  
Rotational constants in cm-1:     0.013708     0.004599     0.003943 

Vibrational entropy computed according to the QRRHO of S. Grimme
Chem.Eur.J. 2012 18 9955


-------
ENTROPY
-------

The entropy contributions are T*S = T*(S(el)+S(vib)+S(rot)+S(trans))
     S(el)   - electronic entropy
     S(vib)  - vibrational entropy
     S(rot)  - rotational entropy
     S(trans)- translational entropy
The entropies will be listed as multiplied by the temperature to get
units of energy

Electronic entropy                ...      0.00000000 Eh      0.00 kcal/mol
Vibrational entropy               ...      0.03621443 Eh     22.72 kcal/mol
Rotational entropy                ...      0.01669011 Eh     10.47 kcal/mol
Translational entropy             ...      0.02059393 Eh     12.92 kcal/mol
-----------------------------------------------------------------------
Final entropy term                ...      0.07349847 Eh     46.12 kcal/mol

In case the symmetry of your molecule has not been determined correctly
or in case you have a reason to use a different symmetry number we print 
out the resulting rotational entropy values for sn=1,12 :
 --------------------------------------------------------
|  sn= 1 | S(rot)=       0.01669011 Eh     10.47 kcal/mol|
|  sn= 2 | S(rot)=       0.01603565 Eh     10.06 kcal/mol|
|  sn= 3 | S(rot)=       0.01565282 Eh      9.82 kcal/mol|
|  sn= 4 | S(rot)=       0.01538119 Eh      9.65 kcal/mol|
|  sn= 5 | S(rot)=       0.01517051 Eh      9.52 kcal/mol|
|  sn= 6 | S(rot)=       0.01499836 Eh      9.41 kcal/mol|
|  sn= 7 | S(rot)=       0.01485281 Eh      9.32 kcal/mol|
|  sn= 8 | S(rot)=       0.01472674 Eh      9.24 kcal/mol|
|  sn= 9 | S(rot)=       0.01461553 Eh      9.17 kcal/mol|
|  sn=10 | S(rot)=       0.01451605 Eh      9.11 kcal/mol|
|  sn=11 | S(rot)=       0.01442606 Eh      9.05 kcal/mol|
|  sn=12 | S(rot)=       0.01434390 Eh      9.00 kcal/mol|
 --------------------------------------------------------


-------------------
GIBBS FREE ENERGY
-------------------

The Gibbs free energy is G = H - T*S

Total enthalpy                    ...  -1040.70567240 Eh 
Total entropy correction          ...     -0.07349847 Eh    -46.12 kcal/mol
-----------------------------------------------------------------------
Final Gibbs free energy         ...  -1040.77917088 Eh

For completeness - the Gibbs free energy minus the electronic energy
G-E(el)                           ...      0.42978720 Eh    269.69 kcal/mol


Timings for individual modules:

Sum of individual times         ...    42050.929 sec (= 700.849 min)
GTO integral calculation        ...       63.104 sec (=   1.052 min)   0.2 %
SCF iterations                  ...    21232.720 sec (= 353.879 min)  50.5 %
SCF Gradient evaluation         ...     5574.343 sec (=  92.906 min)  13.3 %
Geometry relaxation             ...        6.393 sec (=   0.107 min)   0.0 %
Analytical frequency calculation...    12484.698 sec (= 208.078 min)  29.7 %
CHELPG charge generation        ...     2689.670 sec (=  44.828 min)   6.4 %
                             ****ORCA TERMINATED NORMALLY****
TOTAL RUN TIME: 0 days 11 hours 41 minutes 19 seconds 829 msec
