
Lmod is automatically replacing "intel/2020.1.217" with "gcc/10.3.0".


The following have been reloaded with a version change:
  1) gcccore/.9.3.0 => gcccore/.10.3.0        3) openmpi/4.0.3 => openmpi/4.1.1
  2) libfabric/1.10.1 => libfabric/1.12.1     4) ucx/1.8.0 => ucx/1.9.0

To execute ORCA, run: 
   ${EBROOTORCA}/orca orca.inp > orca.out

                                 *****************
                                 * O   R   C   A *
                                 *****************

                                            #,                                       
                                            ###                                      
                                            ####                                     
                                            #####                                    
                                            ######                                   
                                           ########,                                 
                                     ,,################,,,,,                         
                               ,,#################################,,                 
                          ,,##########################################,,             
                       ,#########################################, ''#####,          
                    ,#############################################,,   '####,        
                  ,##################################################,,,,####,       
                ,###########''''           ''''###############################       
              ,#####''   ,,,,##########,,,,          '''####'''          '####       
            ,##' ,,,,###########################,,,                        '##       
           ' ,,###''''                  '''############,,,                           
         ,,##''                                '''############,,,,        ,,,,,,###''
      ,#''                                            '''#######################'''  
     '                                                          ''''####''''         
             ,#######,   #######,   ,#######,      ##                                
            ,#'     '#,  ##    ##  ,#'     '#,    #''#        ######   ,####,        
            ##       ##  ##   ,#'  ##            #'  '#       #        #'  '#        
            ##       ##  #######   ##           ,######,      #####,   #    #        
            '#,     ,#'  ##    ##  '#,     ,#' ,#      #,         ##   #,  ,#        
             '#######'   ##     ##  '#######'  #'      '#     #####' # '####'        



                  #######################################################
                  #                        -***-                        #
                  #          Department of theory and spectroscopy      #
                  #    Directorship and core code : Frank Neese         #
                  #        Max Planck Institute fuer Kohlenforschung    #
                  #                Kaiser Wilhelm Platz 1               #
                  #                 D-45470 Muelheim/Ruhr               #
                  #                      Germany                        #
                  #                                                     #
                  #                  All rights reserved                #
                  #                        -***-                        #
                  #######################################################


                         Program Version 5.0.4 -  RELEASE  -


 With contributions from (in alphabetic order):
   Daniel Aravena         : Magnetic Suceptibility
   Michael Atanasov       : Ab Initio Ligand Field Theory (pilot matlab implementation)
   Alexander A. Auer      : GIAO ZORA, VPT2 properties, NMR spectrum
   Ute Becker             : Parallelization
   Giovanni Bistoni       : ED, misc. LED, open-shell LED, HFLD
   Martin Brehm           : Molecular dynamics
   Dmytro Bykov           : SCF Hessian
   Vijay G. Chilkuri      : MRCI spin determinant printing, contributions to CSF-ICE
   Dipayan Datta          : RHF DLPNO-CCSD density
   Achintya Kumar Dutta   : EOM-CC, STEOM-CC
   Dmitry Ganyushin       : Spin-Orbit,Spin-Spin,Magnetic field MRCI
   Miquel Garcia          : C-PCM and meta-GGA Hessian, CC/C-PCM, Gaussian charge scheme
   Yang Guo               : DLPNO-NEVPT2, F12-NEVPT2, CIM, IAO-localization
   Andreas Hansen         : Spin unrestricted coupled pair/coupled cluster methods
   Benjamin Helmich-Paris : MC-RPA, TRAH-SCF, COSX integrals
   Lee Huntington         : MR-EOM, pCC
   Robert Izsak           : Overlap fitted RIJCOSX, COSX-SCS-MP3, EOM
   Marcus Kettner         : VPT2
   Christian Kollmar      : KDIIS, OOCD, Brueckner-CCSD(T), CCSD density, CASPT2, CASPT2-K
   Simone Kossmann        : Meta GGA functionals, TD-DFT gradient, OOMP2, MP2 Hessian
   Martin Krupicka        : Initial AUTO-CI
   Lucas Lang             : DCDCAS
   Marvin Lechner         : AUTO-CI (C++ implementation), FIC-MRCC
   Dagmar Lenk            : GEPOL surface, SMD
   Dimitrios Liakos       : Extrapolation schemes; Compound Job, initial MDCI parallelization
   Dimitrios Manganas     : Further ROCIS development; embedding schemes
   Dimitrios Pantazis     : SARC Basis sets
   Anastasios Papadopoulos: AUTO-CI, single reference methods and gradients
   Taras Petrenko         : DFT Hessian,TD-DFT gradient, ASA, ECA, R-Raman, ABS, FL, XAS/XES, NRVS
   Peter Pinski           : DLPNO-MP2, DLPNO-MP2 Gradient
   Christoph Reimann      : Effective Core Potentials
   Marius Retegan         : Local ZFS, SOC
   Christoph Riplinger    : Optimizer, TS searches, QM/MM, DLPNO-CCSD(T), (RO)-DLPNO pert. Triples
   Tobias Risthaus        : Range-separated hybrids, TD-DFT gradient, RPA, STAB
   Michael Roemelt        : Original ROCIS implementation
   Masaaki Saitow         : Open-shell DLPNO-CCSD energy and density
   Barbara Sandhoefer     : DKH picture change effects
   Avijit Sen             : IP-ROCIS
   Kantharuban Sivalingam : CASSCF convergence, NEVPT2, FIC-MRCI
   Bernardo de Souza      : ESD, SOC TD-DFT
   Georgi Stoychev        : AutoAux, RI-MP2 NMR, DLPNO-MP2 response
   Willem Van den Heuvel  : Paramagnetic NMR
   Boris Wezisla          : Elementary symmetry handling
   Frank Wennmohs         : Technical directorship


 We gratefully acknowledge several colleagues who have allowed us to
 interface, adapt or use parts of their codes:
   Stefan Grimme, W. Hujo, H. Kruse, P. Pracht,  : VdW corrections, initial TS optimization,
                  C. Bannwarth, S. Ehlert          DFT functionals, gCP, sTDA/sTD-DF
   Ed Valeev, F. Pavosevic, A. Kumar             : LibInt (2-el integral package), F12 methods
   Garnet Chan, S. Sharma, J. Yang, R. Olivares  : DMRG
   Ulf Ekstrom                                   : XCFun DFT Library
   Mihaly Kallay                                 : mrcc  (arbitrary order and MRCC methods)
   Jiri Pittner, Ondrej Demel                    : Mk-CCSD
   Frank Weinhold                                : gennbo (NPA and NBO analysis)
   Christopher J. Cramer and Donald G. Truhlar   : smd solvation model
   Lars Goerigk                                  : TD-DFT with DH, B97 family of functionals
   V. Asgeirsson, H. Jonsson                     : NEB implementation
   FAccTs GmbH                                   : IRC, NEB, NEB-TS, DLPNO-Multilevel, CI-OPT
                                                   MM, QMMM, 2- and 3-layer-ONIOM, Crystal-QMMM,
                                                   LR-CPCM, SF, NACMEs, symmetry and pop. for TD-DFT,
                                                   nearIR, NL-DFT gradient (VV10), updates on ESD,
                                                   ML-optimized integration grids
   S Lehtola, MJT Oliveira, MAL Marques          : LibXC Library
   Liviu Ungur et al                             : ANISO software


 Your calculation uses the libint2 library for the computation of 2-el integrals
 For citations please refer to: http://libint.valeyev.net

 Your ORCA version has been built with support for libXC version: 5.1.0
 For citations please refer to: https://tddft.org/programs/libxc/

 This ORCA versions uses:
   CBLAS   interface :  Fast vector & matrix operations
   LAPACKE interface :  Fast linear algebra routines
   SCALAPACK package :  Parallel linear algebra routines
   Shared memory     :  Shared parallel matrices
   BLAS/LAPACK       :  OpenBLAS 0.3.15  USE64BITINT DYNAMIC_ARCH NO_AFFINITY Haswell SINGLE_THREADED
        Core in use  :  Haswell
   Copyright (c) 2011-2014, The OpenBLAS Project


Your calculation utilizes the atom-pairwise dispersion correction
with the Becke-Johnson damping scheme (D3BJ)
Cite in your paper:
S.Grimme, S.Ehrlich, L.Goerigk, J Comput Chem, (2011), 32, 1456–1465 
S.Grimme, J.Antony, S.Ehrlich and H.Krieg, J.Chem.Phys., 132, (2010), 154104 
   

================================================================================

----- Orbital basis set information -----
Your calculation utilizes the basis: def2-TZVP
   F. Weigend and R. Ahlrichs, Phys. Chem. Chem. Phys. 7, 3297 (2005).

----- AuxJ basis set information -----
Your calculation utilizes the auxiliary basis: def2/J
   F. Weigend, Phys. Chem. Chem. Phys. 8, 1057 (2006).

================================================================================
                                        WARNINGS
                       Please study these warnings very carefully!
================================================================================


WARNING: Geometry Optimization
  ===> : Switching off AutoStart
         For restart on a previous wavefunction, please use MOREAD

INFO   : the flag for use of the SHARK integral package has been found!

================================================================================
                                       INPUT FILE
================================================================================
NAME = Fentanyl_OProt_38.inp
|  1> ! wB97X-D3BJ TightOpt Freq def2-TZVP def2/J RIJCOSX TightSCF defgrid3 CHELPG
|  2> %maxcore 3400
|  3> 
|  4> %pal nprocs 8 
|  5> end
|  6> 
|  7> %chelpg
|  8> grid 0.1
|  9> rmax 3.0
| 10> end
| 11> 
| 12> *xyz 1 1
| 13> O        -0.0341926569    -1.9072404063     0.5771085303
| 14> N        -1.9245149628     1.9346016675    -0.4768069127
| 15> N         1.5292081480    -0.4165715929    -0.2124856583
| 16> C         0.6194584781     0.7205442145    -0.4594472581
| 17> C        -0.4024886216     0.4084385481    -1.5570983889
| 18> C        -0.0378910298     1.2338287014     0.8250376082
| 19> C        -1.3168961838     1.6246329499    -1.7453808759
| 20> C        -0.9498498634     2.4136022088     0.4661641383
| 21> C        -3.2207157577     2.5830202113    -0.5203880736
| 22> C        -4.3170249299     1.5055502190    -0.6429157557
| 23> C         2.9008085872    -0.1577707324    -0.5694379618
| 24> C         1.1773583830    -1.5764413052     0.2615431129
| 25> C        -3.9476330376     0.3494008572     0.2423688963
| 26> C         2.1815551776    -2.6480973597     0.5413461176
| 27> C         3.3799680627    -0.5893266400    -1.7982783473
| 28> C         3.7058213675     0.5723505172     0.2919467985
| 29> C         2.7515289954    -2.4653223948     1.9552158349
| 30> C        -3.5039976329    -0.8482165727    -0.3029518042
| 31> C        -3.9584883569     0.4872185223     1.6255171305
| 32> C         4.6854614959    -0.2992056097    -2.1563340172
| 33> C         5.0108321525     0.8545769868    -0.0756253507
| 34> C         5.5003801862     0.4183509277    -1.2957005100
| 35> C        -3.0587978065    -1.8773177343     0.5122845003
| 36> C        -3.5152691927    -0.5367728476     2.4436289033
| 37> C        -3.0527541515    -1.7194497614     1.8894874655
| 38> H         1.2671239336     1.5211271435    -0.8349607816
| 39> H        -1.0336094689    -0.4425655803    -1.2994047619
| 40> H         0.1175453216     0.1833913237    -2.4897738344
| 41> H         0.7290376482     1.5526172388     1.5325252526
| 42> H        -0.6599988231     0.4794613083     1.3091789170
| 43> H        -0.7290894493     2.4708913133    -2.1442735396
| 44> H        -2.0941611169     1.3793734204    -2.4680141834
| 45> H        -1.4526890907     2.7596884036     1.3690248342
| 46> H        -0.3409436097     3.2444594909     0.0667914978
| 47> H        -3.3588992464     3.1256832875     0.4151952754
| 48> H        -3.3002616712     3.3059932221    -1.3429151899
| 49> H        -4.4007123455     1.1676535461    -1.6761054931
| 50> H        -5.2747441051     1.9342091195    -0.3473170759
| 51> H         2.9918675730    -2.6287860574    -0.1852671589
| 52> H         1.6654106521    -3.6071441675     0.4900510055
| 53> H         2.7370725065    -1.1452891746    -2.4639944048
| 54> H         3.3155846969     0.9184520835     1.2369648674
| 55> H         3.4194685498    -3.2919269561     2.1761157142
| 56> H         1.9541221300    -2.4622870258     2.6932147896
| 57> H         3.3150320561    -1.5396284766     2.0324346385
| 58> H        -3.5222273778    -0.9843042532    -1.3753758006
| 59> H        -4.3246659763     1.4024662070     2.0660145092
| 60> H         5.0624469419    -0.6328567950    -3.1099365645
| 61> H         5.6420033599     1.4180516935     0.5929349665
| 62> H         6.5165441593     0.6418279050    -1.5785015109
| 63> H        -2.7349805010    -2.8117099010     0.0754756900
| 64> H        -3.5353748565    -0.4160669056     3.5163026840
| 65> H        -2.7088538020    -2.5213703606     2.5250676391
| 66> H        -0.7496311166    -1.2472331615     0.4590453654
| 67> *
| 68> 
| 69> 
| 70>                          ****END OF INPUT****
================================================================================

                       *****************************
                       * Geometry Optimization Run *
                       *****************************

Geometry optimization settings:
Update method            Update   .... BFGS
Choice of coordinates    CoordSys .... Z-matrix Internals
Initial Hessian          InHess   .... Almoef's Model

Convergence Tolerances:
Energy Change            TolE     ....  1.0000e-06 Eh
Max. Gradient            TolMAXG  ....  1.0000e-04 Eh/bohr
RMS Gradient             TolRMSG  ....  3.0000e-05 Eh/bohr
Max. Displacement        TolMAXD  ....  1.0000e-03 bohr
RMS Displacement         TolRMSD  ....  6.0000e-04 bohr
Strict Convergence                ....  False
------------------------------------------------------------------------------
                        ORCA OPTIMIZATION COORDINATE SETUP
------------------------------------------------------------------------------

The optimization will be done in new redundant internal coordinates
Making redundant internal coordinates   ...  (new redundants) done
Evaluating the initial hessian          ...  (Almloef) done
Evaluating the coordinates              ...  done
Calculating the B-matrix                .... done
Calculating the G-matrix                .... done
Diagonalizing the G-matrix              .... done
Small eigenvalue found = 2.653e-03
Small eigenvalue found = 4.818e-03
Small eigenvalue found = 6.148e-03
Small eigenvalue found = 6.913e-03
Small eigenvalue found = 1.361e-02
Small eigenvalue found = 1.805e-02
Small eigenvalue found = 2.408e-02
Small eigenvalue found = 2.615e-02
The first mode is                       ....  149
The number of degrees of freedom        ....  156

    -----------------------------------------------------------------
                    Redundant Internal Coordinates


    -----------------------------------------------------------------
         Definition                    Initial Value    Approx d2E/dq
    -----------------------------------------------------------------
      1. B(C   3,N   2)                  1.4770         0.406442   
      2. B(C   4,C   3)                  1.5319         0.371018   
      3. B(C   5,C   3)                  1.5315         0.371531   
      4. B(C   6,C   4)                  1.5332         0.369201   
      5. B(C   6,N   1)                  1.4403         0.465127   
      6. B(C   7,N   1)                  1.4383         0.468674   
      7. B(C   7,C   5)                  1.5337         0.368492   
      8. B(C   8,N   1)                  1.4500         0.448910   
      9. B(C   9,C   8)                  1.5420         0.357428   
     10. B(C  10,N   2)                  1.4407         0.464463   
     11. B(C  11,N   2)                  1.3015         0.774702   
     12. B(C  11,O   0)                  1.2949         0.793488   
     13. B(C  12,C   9)                  1.5023         0.413614   
     14. B(C  13,C  11)                  1.4950         0.424769   
     15. B(C  14,C  10)                  1.3878         0.629955   
     16. B(C  15,C  10)                  1.3868         0.632275   
     17. B(C  16,C  13)                  1.5354         0.366302   
     18. B(C  17,C  12)                  1.3887         0.627798   
     19. B(C  18,C  12)                  1.3900         0.624705   
     20. B(C  19,C  14)                  1.3844         0.637678   
     21. B(C  20,C  15)                  1.3849         0.636726   
     22. B(C  21,C  20)                  1.3851         0.636118   
     23. B(C  21,C  19)                  1.3855         0.635161   
     24. B(C  22,C  17)                  1.3863         0.633318   
     25. B(C  23,C  18)                  1.3836         0.639695   
     26. B(C  24,C  23)                  1.3855         0.635121   
     27. B(C  24,C  22)                  1.3862         0.633499   
     28. B(H  25,C   3)                  1.0961         0.352133   
     29. B(H  26,C   4)                  1.0904         0.359598   
     30. B(H  27,C   4)                  1.0913         0.358367   
     31. B(H  28,C   5)                  1.0910         0.358741   
     32. B(H  29,C   5)                  1.0911         0.358659   
     33. B(H  30,C   6)                  1.1049         0.340930   
     34. B(H  31,C   6)                  1.0893         0.361077   
     35. B(H  32,C   7)                  1.0899         0.360294   
     36. B(H  33,C   7)                  1.1048         0.341041   
     37. B(H  34,C   8)                  1.0904         0.359619   
     38. B(H  35,C   8)                  1.0980         0.349692   
     39. B(H  36,C   9)                  1.0903         0.359761   
     40. B(H  37,C   9)                  1.0901         0.359946   
     41. B(H  38,C  13)                  1.0886         0.362020   
     42. B(H  39,C  13)                  1.0903         0.359671   
     43. B(H  40,C  14)                  1.0796         0.374092   
     44. B(H  41,C  15)                  1.0794         0.374383   
     45. B(H  42,C  16)                  1.0855         0.366161   
     46. B(H  43,C  16)                  1.0865         0.364743   
     47. B(H  44,C  16)                  1.0865         0.364806   
     48. B(H  45,C  17)                  1.0812         0.371962   
     49. B(H  46,C  18)                  1.0797         0.373955   
     50. B(H  47,C  19)                  1.0783         0.375871   
     51. B(H  48,C  20)                  1.0784         0.375836   
     52. B(H  49,C  21)                  1.0782         0.376058   
     53. B(H  50,C  22)                  1.0811         0.372086   
     54. B(H  51,C  23)                  1.0796         0.374081   
     55. B(H  52,C  24)                  1.0795         0.374270   
     56. B(H  53,C  22)                  2.3942         0.002990   
     57. B(H  53,O   0)                  0.9805         0.482218   
     58. A(C  11,O   0,H  53)          118.7753         0.381234   
     59. A(C   7,N   1,C   8)          118.4613         0.385129   
     60. A(C   6,N   1,C   8)          116.5437         0.384620   
     61. A(C   6,N   1,C   7)          111.2992         0.387517   
     62. A(C   3,N   2,C  11)          125.4847         0.413424   
     63. A(C  10,N   2,C  11)          120.5114         0.423372   
     64. A(C   3,N   2,C  10)          113.9950         0.377951   
     65. A(C   4,C   3,C   5)          112.5144         0.362586   
     66. A(N   2,C   3,H  25)          104.8117         0.325678   
     67. A(N   2,C   3,C   4)          111.9534         0.365906   
     68. A(N   2,C   3,C   5)          112.4673         0.365993   
     69. A(C   5,C   3,H  25)          107.2274         0.322840   
     70. A(C   4,C   3,H  25)          107.3090         0.322767   
     71. A(C   3,C   4,C   6)          108.9203         0.362196   
     72. A(C   3,C   4,H  27)          109.6638         0.323697   
     73. A(C   6,C   4,H  26)          107.6327         0.323618   
     74. A(H  26,C   4,H  27)          108.4724         0.290555   
     75. A(C   6,C   4,H  27)          110.0491         0.323436   
     76. A(C   3,C   4,H  26)          112.0742         0.323879   
     77. A(C   3,C   5,H  29)          112.6539         0.323814   
     78. A(H  28,C   5,H  29)          108.3655         0.290484   
     79. A(C   3,C   5,C   7)          108.4679         0.362163   
     80. A(C   3,C   5,H  28)          109.8819         0.323826   
     81. A(C   7,C   5,H  29)          107.2553         0.323377   
     82. A(C   7,C   5,H  28)          110.1783         0.323390   
     83. A(C   4,C   6,H  31)          109.1740         0.323836   
     84. A(C   4,C   6,H  30)          109.5483         0.320804   
     85. A(N   1,C   6,H  30)          112.1834         0.331235   
     86. A(N   1,C   6,C   4)          108.3094         0.374172   
     87. A(H  30,C   6,H  31)          108.2141         0.288478   
     88. A(N   1,C   6,H  31)          109.3740         0.334403   
     89. A(H  32,C   7,H  33)          108.3572         0.288395   
     90. A(N   1,C   7,H  33)          112.7649         0.331670   
     91. A(C   5,C   7,H  33)          109.5942         0.320721   
     92. A(C   5,C   7,H  32)          108.9514         0.323619   
     93. A(N   1,C   7,H  32)          109.6476         0.334705   
     94. A(N   1,C   7,C   5)          107.4679         0.374539   
     95. A(C   9,C   8,H  35)          110.4295         0.320436   
     96. A(N   1,C   8,H  35)          112.4410         0.330681   
     97. A(C   9,C   8,H  34)          109.0160         0.321907   
     98. A(N   1,C   8,H  34)          108.0629         0.332217   
     99. A(N   1,C   8,C   9)          108.9940         0.369823   
    100. A(H  34,C   8,H  35)          107.8121         0.289443   
    101. A(C   8,C   9,H  37)          109.1657         0.321955   
    102. A(H  36,C   9,H  37)          108.1437         0.290777   
    103. A(C  12,C   9,H  37)          111.0297         0.329781   
    104. A(C   8,C   9,C  12)          108.4275         0.366953   
    105. A(C  12,C   9,H  36)          109.8041         0.329753   
    106. A(C   8,C   9,H  36)          110.2689         0.321928   
    107. A(C  14,C  10,C  15)          120.8846         0.436852   
    108. A(N   2,C  10,C  15)          119.5596         0.410995   
    109. A(N   2,C  10,C  14)          119.4876         0.410727   
    110. A(O   0,C  11,N   2)          124.7059         0.466462   
    111. A(N   2,C  11,C  13)          121.6952         0.419398   
    112. A(O   0,C  11,C  13)          113.5602         0.421194   
    113. A(C  17,C  12,C  18)          118.6030         0.435636   
    114. A(C   9,C  12,C  18)          120.5405         0.404396   
    115. A(C   9,C  12,C  17)          120.7202         0.404749   
    116. A(C  11,C  13,C  16)          109.6556         0.370189   
    117. A(H  38,C  13,H  39)          109.6691         0.291028   
    118. A(C  16,C  13,H  39)          108.8912         0.323211   
    119. A(C  11,C  13,H  39)          107.6818         0.331194   
    120. A(C  16,C  13,H  38)          109.6475         0.323556   
    121. A(C  11,C  13,H  38)          111.2450         0.331551   
    122. A(C  10,C  14,C  19)          119.3030         0.437523   
    123. A(C  19,C  14,H  40)          120.6613         0.356895   
    124. A(C  10,C  14,H  40)          120.0357         0.356157   
    125. A(C  10,C  15,C  20)          119.3051         0.437695   
    126. A(C  20,C  15,H  41)          120.5118         0.356852   
    127. A(C  10,C  15,H  41)          120.1828         0.356427   
    128. A(H  43,C  16,H  44)          109.2684         0.292021   
    129. A(H  42,C  16,H  44)          108.3739         0.292200   
    130. A(C  13,C  16,H  44)          111.0647         0.323964   
    131. A(H  42,C  16,H  43)          108.3918         0.292192   
    132. A(C  13,C  16,H  43)          110.6937         0.323954   
    133. A(C  13,C  16,H  42)          108.9771         0.324161   
    134. A(C  12,C  17,C  22)          120.7876         0.436712   
    135. A(C  22,C  17,H  45)          119.6881         0.356134   
    136. A(C  12,C  17,H  45)          119.5163         0.355605   
    137. A(C  23,C  18,H  46)          119.6544         0.357064   
    138. A(C  12,C  18,H  46)          119.5144         0.355630   
    139. A(C  12,C  18,C  23)          120.8296         0.437112   
    140. A(C  14,C  19,C  21)          120.1659         0.438173   
    141. A(C  21,C  19,H  47)          120.2606         0.356943   
    142. A(C  14,C  19,H  47)          119.5733         0.357183   
    143. A(C  15,C  20,C  21)          120.1771         0.438174   
    144. A(C  21,C  20,H  48)          120.2521         0.357029   
    145. A(C  15,C  20,H  48)          119.5706         0.357087   
    146. A(C  19,C  21,C  20)          120.1574         0.437979   
    147. A(C  20,C  21,H  49)          119.9248         0.357064   
    148. A(C  19,C  21,H  49)          119.9171         0.356973   
    149. A(C  24,C  22,H  50)          119.9033         0.356171   
    150. A(C  17,C  22,H  50)          120.0125         0.356154   
    151. A(C  17,C  22,C  24)          120.0722         0.437424   
    152. A(C  24,C  23,H  51)          119.9351         0.356650   
    153. A(C  18,C  23,H  51)          119.9191         0.357085   
    154. A(C  18,C  23,C  24)          120.1448         0.438417   
    155. A(C  23,C  24,H  52)          120.3292         0.356680   
    156. A(C  22,C  24,H  52)          120.1145         0.356526   
    157. A(C  22,C  24,C  23)          119.5441         0.437649   
    158. D(C   4,C   3,N   2,C  11)    -65.1012         0.014096   
    159. D(C   4,C   3,N   2,C  10)    113.8161         0.014096   
    160. D(H  25,C   3,N   2,C  10)     -2.1855         0.014096   
    161. D(C   5,C   3,N   2,C  11)     62.7385         0.014096   
    162. D(H  25,C   3,N   2,C  11)    178.8972         0.014096   
    163. D(C   5,C   3,N   2,C  10)   -118.3442         0.014096   
    164. D(C   6,C   4,C   3,N   2)    179.3973         0.011000   
    165. D(H  27,C   4,C   3,N   2)    -60.1162         0.011000   
    166. D(H  27,C   4,C   3,C   5)    172.0693         0.011000   
    167. D(C   6,C   4,C   3,H  25)    -66.1263         0.011000   
    168. D(H  26,C   4,C   3,H  25)    174.8907         0.011000   
    169. D(H  26,C   4,C   3,C   5)    -67.4002         0.011000   
    170. D(H  26,C   4,C   3,N   2)     60.4144         0.011000   
    171. D(H  27,C   4,C   3,H  25)     54.3602         0.011000   
    172. D(C   6,C   4,C   3,C   5)     51.5828         0.011000   
    173. D(H  29,C   5,C   3,N   2)    -61.8397         0.011029   
    174. D(H  28,C   5,C   3,H  25)    -55.6093         0.011029   
    175. D(H  28,C   5,C   3,C   4)   -173.3667         0.011029   
    176. D(C   7,C   5,C   3,H  25)     64.8881         0.011029   
    177. D(H  29,C   5,C   3,H  25)   -176.5395         0.011029   
    178. D(C   7,C   5,C   3,C   4)    -52.8693         0.011029   
    179. D(H  29,C   5,C   3,C   4)     65.7031         0.011029   
    180. D(C   7,C   5,C   3,N   2)    179.5879         0.011029   
    181. D(H  28,C   5,C   3,N   2)     59.0905         0.011029   
    182. D(H  31,C   6,N   1,C   8)    -33.2983         0.018476   
    183. D(H  31,C   6,N   1,C   7)   -173.3411         0.018476   
    184. D(H  30,C   6,N   1,C   8)     86.7812         0.018476   
    185. D(H  30,C   6,N   1,C   7)    -53.2616         0.018476   
    186. D(C   4,C   6,N   1,C   8)   -152.1850         0.018476   
    187. D(N   1,C   6,C   4,C   3)    -56.5237         0.010900   
    188. D(C   4,C   6,N   1,C   7)     67.7723         0.018476   
    189. D(H  31,C   6,C   4,H  26)    -53.8143         0.010900   
    190. D(H  31,C   6,C   4,C   3)   -175.5368         0.010900   
    191. D(H  30,C   6,C   4,H  27)    -54.1214         0.010900   
    192. D(H  30,C   6,C   4,H  26)   -172.1499         0.010900   
    193. D(H  30,C   6,C   4,C   3)     66.1276         0.010900   
    194. D(N   1,C   6,C   4,H  27)   -176.7727         0.010900   
    195. D(H  31,C   6,C   4,H  27)     64.2142         0.010900   
    196. D(N   1,C   6,C   4,H  26)     65.1987         0.010900   
    197. D(H  33,C   7,C   5,H  29)    174.2235         0.010860   
    198. D(H  33,C   7,C   5,H  28)     56.4713         0.010860   
    199. D(H  33,C   7,C   5,C   3)    -63.8420         0.010860   
    200. D(H  32,C   7,C   5,H  29)     55.8191         0.010860   
    201. D(H  32,C   7,C   5,H  28)    -61.9331         0.010860   
    202. D(H  32,C   7,C   5,C   3)    177.7536         0.010860   
    203. D(N   1,C   7,C   5,H  29)    -62.9150         0.010860   
    204. D(N   1,C   7,C   5,H  28)    179.3327         0.010860   
    205. D(N   1,C   7,C   5,C   3)     59.0195         0.010860   
    206. D(H  33,C   7,N   1,C   8)    -87.2505         0.018765   
    207. D(H  33,C   7,N   1,C   6)     51.9431         0.018765   
    208. D(H  32,C   7,N   1,C   8)     33.5788         0.018765   
    209. D(H  32,C   7,N   1,C   6)    172.7724         0.018765   
    210. D(C   5,C   7,N   1,C   8)    151.8641         0.018765   
    211. D(C   5,C   7,N   1,C   6)    -68.9423         0.018765   
    212. D(H  35,C   8,N   1,C   7)     99.8520         0.017190   
    213. D(H  35,C   8,N   1,C   6)    -37.2568         0.017190   
    214. D(H  34,C   8,N   1,C   7)    -19.0172         0.017190   
    215. D(H  34,C   8,N   1,C   6)   -156.1259         0.017190   
    216. D(C   9,C   8,N   1,C   7)   -137.3581         0.017190   
    217. D(C   9,C   8,N   1,C   6)     85.5332         0.017190   
    218. D(C  12,C   9,C   8,H  35)    164.2500         0.010260   
    219. D(C  12,C   9,C   8,H  34)    -77.4790         0.010260   
    220. D(C  12,C   9,C   8,N   1)     40.2618         0.010260   
    221. D(H  37,C   9,C   8,H  35)    -74.6692         0.010260   
    222. D(H  37,C   9,C   8,H  34)     43.6018         0.010260   
    223. D(H  37,C   9,C   8,N   1)    161.3426         0.010260   
    224. D(H  36,C   9,C   8,H  35)     44.0025         0.010260   
    225. D(H  36,C   9,C   8,H  34)    162.2736         0.010260   
    226. D(H  36,C   9,C   8,N   1)    -79.9857         0.010260   
    227. D(C  15,C  10,N   2,C  11)   -101.5031         0.016999   
    228. D(C  15,C  10,N   2,C   3)     79.5202         0.016999   
    229. D(C  14,C  10,N   2,C  11)     81.4734         0.016999   
    230. D(C  14,C  10,N   2,C   3)    -97.5033         0.016999   
    231. D(C  13,C  11,N   2,C  10)      4.1873         0.050775   
    232. D(C  13,C  11,N   2,C   3)   -176.9609         0.050775   
    233. D(O   0,C  11,N   2,C  10)   -178.2268         0.050775   
    234. D(O   0,C  11,N   2,C   3)      0.6251         0.050775   
    235. D(C  13,C  11,O   0,H  53)    177.5703         0.048432   
    236. D(N   2,C  11,O   0,H  53)     -0.1890         0.048432   
    237. D(C  18,C  12,C   9,H  37)    -51.7207         0.012663   
    238. D(C  18,C  12,C   9,H  36)   -171.2613         0.012663   
    239. D(C  18,C  12,C   9,C   8)     68.2022         0.012663   
    240. D(C  17,C  12,C   9,H  37)    132.5815         0.012663   
    241. D(C  17,C  12,C   9,H  36)     13.0410         0.012663   
    242. D(C  17,C  12,C   9,C   8)   -107.4955         0.012663   
    243. D(H  39,C  13,C  11,N   2)   -155.0772         0.013333   
    244. D(H  39,C  13,C  11,O   0)     27.0877         0.013333   
    245. D(H  38,C  13,C  11,N   2)    -34.8801         0.013333   
    246. D(H  38,C  13,C  11,O   0)    147.2848         0.013333   
    247. D(C  16,C  13,C  11,N   2)     86.5819         0.013333   
    248. D(C  16,C  13,C  11,O   0)    -91.2532         0.013333   
    249. D(H  40,C  14,C  10,C  15)   -179.1631         0.027515   
    250. D(H  40,C  14,C  10,N   2)     -2.1800         0.027515   
    251. D(C  19,C  14,C  10,C  15)      0.8505         0.027515   
    252. D(C  19,C  14,C  10,N   2)    177.8335         0.027515   
    253. D(H  41,C  15,C  10,C  14)    178.8338         0.027731   
    254. D(H  41,C  15,C  10,N   2)      1.8529         0.027731   
    255. D(C  20,C  15,C  10,C  14)     -0.9703         0.027731   
    256. D(C  20,C  15,C  10,N   2)   -177.9512         0.027731   
    257. D(H  44,C  16,C  13,H  39)    177.3083         0.010740   
    258. D(H  44,C  16,C  13,C  11)    -65.1035         0.010740   
    259. D(H  43,C  16,C  13,H  39)    -61.1241         0.010740   
    260. D(H  43,C  16,C  13,H  38)    178.8815         0.010740   
    261. D(H  43,C  16,C  13,C  11)     56.4641         0.010740   
    262. D(H  42,C  16,C  13,H  39)     57.9905         0.010740   
    263. D(H  44,C  16,C  13,H  38)     57.3139         0.010740   
    264. D(H  42,C  16,C  13,H  38)    -62.0039         0.010740   
    265. D(H  42,C  16,C  13,C  11)    175.5786         0.010740   
    266. D(H  45,C  17,C  12,C  18)    177.8471         0.027315   
    267. D(H  45,C  17,C  12,C   9)     -6.3732         0.027315   
    268. D(C  22,C  17,C  12,C  18)     -1.1180         0.027315   
    269. D(C  22,C  17,C  12,C   9)    174.6616         0.027315   
    270. D(H  46,C  18,C  12,C  17)   -178.4144         0.027030   
    271. D(H  46,C  18,C  12,C   9)      5.7981         0.027030   
    272. D(C  23,C  18,C  12,C  17)      1.1160         0.027030   
    273. D(C  23,C  18,C  12,C   9)   -174.6715         0.027030   
    274. D(H  47,C  19,C  14,H  40)     -0.0173         0.028239   
    275. D(H  47,C  19,C  14,C  10)    179.9690         0.028239   
    276. D(C  21,C  19,C  14,H  40)    179.8120         0.028239   
    277. D(C  21,C  19,C  14,C  10)     -0.2016         0.028239   
    278. D(H  48,C  20,C  15,H  41)      0.4814         0.028149   
    279. D(H  48,C  20,C  15,C  10)   -179.7152         0.028149   
    280. D(C  21,C  20,C  15,H  41)   -179.3614         0.028149   
    281. D(C  21,C  20,C  15,C  10)      0.4420         0.028149   
    282. D(H  49,C  21,C  19,C  14)    179.9834         0.028002   
    283. D(C  20,C  21,C  19,H  47)    179.5123         0.028002   
    284. D(C  20,C  21,C  19,C  14)     -0.3159         0.028002   
    285. D(H  49,C  21,C  20,H  48)      0.0535         0.028092   
    286. D(H  49,C  21,C  20,C  15)    179.8952         0.028092   
    287. D(C  19,C  21,C  20,H  48)   -179.6472         0.028092   
    288. D(C  19,C  21,C  20,C  15)      0.1945         0.028092   
    289. D(H  49,C  21,C  19,H  47)     -0.1884         0.028002   
    290. D(H  50,C  22,C  17,H  45)     -0.2008         0.030247   
    291. D(H  50,C  22,C  17,C  12)    178.7626         0.030247   
    292. D(C  24,C  22,C  17,H  45)   -178.9396         0.030247   
    293. D(C  24,C  22,C  17,C  12)      0.0238         0.030247   
    294. D(H  51,C  23,C  18,H  46)     -0.1264         0.028430   
    295. D(H  51,C  23,C  18,C  12)   -179.6562         0.028430   
    296. D(C  24,C  23,C  18,H  46)    179.5120         0.028430   
    297. D(C  24,C  23,C  18,C  12)     -0.0178         0.028430   
    298. D(H  52,C  24,C  23,H  51)     -0.1892         0.027998   
    299. D(H  52,C  24,C  23,C  18)   -179.8274         0.027998   
    300. D(C  22,C  24,C  23,H  51)    178.5453         0.027998   
    301. D(C  22,C  24,C  23,C  18)     -1.0930         0.027998   
    302. D(H  52,C  24,C  22,H  50)      1.0868         0.030265   
    303. D(H  52,C  24,C  22,C  17)    179.8269         0.030265   
    304. D(C  23,C  24,C  22,H  50)   -177.6504         0.030265   
    305. D(C  23,C  24,C  22,C  17)      1.0897         0.030265   
    -----------------------------------------------------------------

Number of atoms                         .... 54
Number of degrees of freedom            .... 305

         *************************************************************
         *                GEOMETRY OPTIMIZATION CYCLE   1            *
         *************************************************************
---------------------------------
CARTESIAN COORDINATES (ANGSTROEM)
---------------------------------
  O     -0.034193   -1.907240    0.577109
  N     -1.924515    1.934602   -0.476807
  N      1.529208   -0.416572   -0.212486
  C      0.619458    0.720544   -0.459447
  C     -0.402489    0.408439   -1.557098
  C     -0.037891    1.233829    0.825038
  C     -1.316896    1.624633   -1.745381
  C     -0.949850    2.413602    0.466164
  C     -3.220716    2.583020   -0.520388
  C     -4.317025    1.505550   -0.642916
  C      2.900809   -0.157771   -0.569438
  C      1.177358   -1.576441    0.261543
  C     -3.947633    0.349401    0.242369
  C      2.181555   -2.648097    0.541346
  C      3.379968   -0.589327   -1.798278
  C      3.705821    0.572351    0.291947
  C      2.751529   -2.465322    1.955216
  C     -3.503998   -0.848217   -0.302952
  C     -3.958488    0.487219    1.625517
  C      4.685461   -0.299206   -2.156334
  C      5.010832    0.854577   -0.075625
  C      5.500380    0.418351   -1.295701
  C     -3.058798   -1.877318    0.512285
  C     -3.515269   -0.536773    2.443629
  C     -3.052754   -1.719450    1.889487
  H      1.267124    1.521127   -0.834961
  H     -1.033609   -0.442566   -1.299405
  H      0.117545    0.183391   -2.489774
  H      0.729038    1.552617    1.532525
  H     -0.659999    0.479461    1.309179
  H     -0.729089    2.470891   -2.144274
  H     -2.094161    1.379373   -2.468014
  H     -1.452689    2.759688    1.369025
  H     -0.340944    3.244459    0.066791
  H     -3.358899    3.125683    0.415195
  H     -3.300262    3.305993   -1.342915
  H     -4.400712    1.167654   -1.676105
  H     -5.274744    1.934209   -0.347317
  H      2.991868   -2.628786   -0.185267
  H      1.665411   -3.607144    0.490051
  H      2.737073   -1.145289   -2.463994
  H      3.315585    0.918452    1.236965
  H      3.419469   -3.291927    2.176116
  H      1.954122   -2.462287    2.693215
  H      3.315032   -1.539628    2.032435
  H     -3.522227   -0.984304   -1.375376
  H     -4.324666    1.402466    2.066015
  H      5.062447   -0.632857   -3.109937
  H      5.642003    1.418052    0.592935
  H      6.516544    0.641828   -1.578502
  H     -2.734981   -2.811710    0.075476
  H     -3.535375   -0.416067    3.516303
  H     -2.708854   -2.521370    2.525068
  H     -0.749631   -1.247233    0.459045

----------------------------
CARTESIAN COORDINATES (A.U.)
----------------------------
  NO LB      ZA    FRAG     MASS         X           Y           Z
   0 O     8.0000    0    15.999   -0.064615   -3.604162    1.090577
   1 N     7.0000    0    14.007   -3.636806    3.655867   -0.901034
   2 N     7.0000    0    14.007    2.889785   -0.787206   -0.401540
   3 C     6.0000    0    12.011    1.170607    1.361631   -0.868229
   4 C     6.0000    0    12.011   -0.760593    0.771837   -2.942490
   5 C     6.0000    0    12.011   -0.071604    2.331598    1.559095
   6 C     6.0000    0    12.011   -2.488573    3.070111   -3.298292
   7 C     6.0000    0    12.011   -1.794956    4.561047    0.880923
   8 C     6.0000    0    12.011   -6.086271    4.881201   -0.983391
   9 C     6.0000    0    12.011   -8.157995    2.845078   -1.214935
  10 C     6.0000    0    12.011    5.481734   -0.298143   -1.076082
  11 C     6.0000    0    12.011    2.224885   -2.979042    0.494245
  12 C     6.0000    0    12.011   -7.459945    0.660272    0.458011
  13 C     6.0000    0    12.011    4.122542   -5.004179    1.022996
  14 C     6.0000    0    12.011    6.387214   -1.113666   -3.398254
  15 C     6.0000    0    12.011    7.002987    1.081586    0.551699
  16 C     6.0000    0    12.011    5.199636   -4.658784    3.694822
  17 C     6.0000    0    12.011   -6.621596   -1.602897   -0.572496
  18 C     6.0000    0    12.011   -7.480459    0.920710    3.071782
  19 C     6.0000    0    12.011    8.854239   -0.565417   -4.074881
  20 C     6.0000    0    12.011    9.469100    1.614916   -0.142911
  21 C     6.0000    0    12.011   10.394212    0.790569   -2.448519
  22 C     6.0000    0    12.011   -5.780290   -3.547616    0.968077
  23 C     6.0000    0    12.011   -6.642896   -1.014354    4.617789
  24 C     6.0000    0    12.011   -5.768869   -3.249289    3.570614
  25 H     1.0000    0     1.008    2.394517    2.874514   -1.577847
  26 H     1.0000    0     1.008   -1.953239   -0.836328   -2.455519
  27 H     1.0000    0     1.008    0.222128    0.346559   -4.704991
  28 H     1.0000    0     1.008    1.377681    2.934021    2.896053
  29 H     1.0000    0     1.008   -1.247217    0.906051    2.473990
  30 H     1.0000    0     1.008   -1.377779    4.669308   -4.052090
  31 H     1.0000    0     1.008   -3.957391    2.606638   -4.663871
  32 H     1.0000    0     1.008   -2.745185    5.215055    2.587082
  33 H     1.0000    0     1.008   -0.644290    6.131140    0.126218
  34 H     1.0000    0     1.008   -6.347400    5.906685    0.784605
  35 H     1.0000    0     1.008   -6.236591    6.247422   -2.537742
  36 H     1.0000    0     1.008   -8.316141    2.206545   -3.167380
  37 H     1.0000    0     1.008   -9.967822    3.655126   -0.656334
  38 H     1.0000    0     1.008    5.653810   -4.967686   -0.350104
  39 H     1.0000    0     1.008    3.147170   -6.816515    0.926062
  40 H     1.0000    0     1.008    5.172317   -2.164283   -4.656275
  41 H     1.0000    0     1.008    6.265547    1.735623    2.337525
  42 H     1.0000    0     1.008    6.461859   -6.220840    4.112263
  43 H     1.0000    0     1.008    3.692756   -4.653048    5.089438
  44 H     1.0000    0     1.008    6.264503   -2.909476    3.840745
  45 H     1.0000    0     1.008   -6.656045   -1.860065   -2.599084
  46 H     1.0000    0     1.008   -8.172434    2.650277    3.904202
  47 H     1.0000    0     1.008    9.566638   -1.195926   -5.876928
  48 H     1.0000    0     1.008   10.661841    2.679729    1.120485
  49 H     1.0000    0     1.008   12.314484    1.212879   -2.982936
  50 H     1.0000    0     1.008   -5.168364   -5.313362    0.142628
  51 H     1.0000    0     1.008   -6.680890   -0.786253    6.644849
  52 H     1.0000    0     1.008   -5.118992   -4.764699    4.771686
  53 H     1.0000    0     1.008   -1.416598   -2.356929    0.867470

--------------------------------
INTERNAL COORDINATES (ANGSTROEM)
--------------------------------
 O      0   0   0     0.000000000000     0.00000000     0.00000000
 N      1   0   0     4.409513204561     0.00000000     0.00000000
 N      1   2   0     2.299950993103    69.18566030     0.00000000
 C      3   1   2     1.477046665850    97.91432854     0.25265949
 C      4   3   1     1.531869389514   111.95337657   295.19091717
 C      4   3   1     1.531492968244   112.46726705    63.03060128
 C      2   1   3     1.440333671964    80.91838470    56.77591596
 C      2   1   3     1.438265614404    80.96447993   303.32955508
 C      2   1   3     1.449993940066   141.26274043   178.37449324
 C      9   2   1     1.542027372726   108.99396946   335.61200107
 C      3   1   2     1.440722248451   148.06240650   182.62743853
 C      1   2   3     1.294938415613    96.90786022     0.12241015
 C     10   9   2     1.502285136702   108.42750665    40.26176975
 C     12   1   2     1.495041010431   113.56016926   177.51333576
 C     11   3   1     1.387761866237   119.48762716    79.92194254
 C     11   3   1     1.386761090037   119.55955964   256.94542969
 C     14  12   1     1.535351561783   109.65562258   268.74682019
 C     13  10   9     1.388695267903   120.72021924   252.50449165
 C     13  10   9     1.390039778043   120.54052310    68.20224478
 C     15  11   3     1.384444718686   119.30303864   177.83354437
 C     16  11   3     1.384851693856   119.30513840   182.04877365
 C     21  16  11     1.385111492364   120.17708166     0.44202170
 C     18  13  10     1.386312489451   120.78764365   174.66163949
 C     19  13  10     1.383585351880   120.82961786   185.32850489
 C     24  19  13     1.385538732356   120.14475502     0.00000000
 H      4   3   1     1.096090313243   104.81166984   179.18928036
 H      5   4   3     1.090379546693   112.07420053    60.41436371
 H      5   4   3     1.091313448066   109.66377178   299.88379263
 H      6   4   3     1.091029099381   109.88194391    59.09049023
 H      6   4   3     1.091091690530   112.65394425   298.16028268
 H      7   2   1     1.104891547575   112.18340018   230.21326790
 H      7   2   1     1.089262094331   109.37398055   110.13377028
 H      8   2   1     1.089853374975   109.64762509   249.26693486
 H      8   2   1     1.104802767463   112.76486928   128.43763782
 H      9   2   1     1.090364202341   108.06288525    93.95290592
 H      9   2   1     1.097983781186   112.44097963   212.82204208
 H     10   9   2     1.090256290308   110.26894154   280.01431559
 H     10   9   2     1.090116072271   109.16568123   161.34257030
 H     14  12   1     1.088552230314   111.24496999   147.28476172
 H     14  12   1     1.090324327565   107.68181240    27.08773758
 H     15  11   3     1.079623501631   120.03568714   357.82001767
 H     16  11   3     1.079411924996   120.18277442     1.85285473
 H     17  14  12     1.085456174043   108.97713999   175.57864782
 H     17  14  12     1.086512484783   110.69371951    56.46408231
 H     17  14  12     1.086465679734   111.06465612   294.89647444
 H     18  13  10     1.081177787618   119.51626136   353.62679614
 H     19  13  10     1.079723258034   119.51436439     5.79805358
 H     20  15  11     1.078331562259   119.57327744   179.96904459
 H     21  16  11     1.078356961250   119.57058697   180.28480237
 H     22  21  16     1.078196450430   119.92480267   179.89516940
 H     23  18  13     1.081086631722   120.01249890   178.76257047
 H     24  19  13     1.079631048994   119.91912026   180.34380452
 H     25  24  19     1.079493517758   120.32923587   180.17255409
 H      1   2   3     0.980510409793    21.86753393   180.25655141

---------------------------
INTERNAL COORDINATES (A.U.)
---------------------------
 O      0   0   0     0.000000000000     0.00000000     0.00000000
 N      1   0   0     8.332772340530     0.00000000     0.00000000
 N      1   2   0     4.346277498405    69.18566030     0.00000000
 C      3   1   2     2.791213685478    97.91432854     0.25265949
 C      4   3   1     2.894813619119   111.95337657   295.19091717
 C      4   3   1     2.894102286008   112.46726705    63.03060128
 C      2   1   3     2.721836181477    80.91838470    56.77591596
 C      2   1   3     2.717928119060    80.96447993   303.32955508
 C      2   1   3     2.740091442570   141.26274043   178.37449324
 C      9   2   1     2.914009425463   108.99396946   335.61200107
 C      3   1   2     2.722570484621   148.06240650   182.62743853
 C      1   2   3     2.447078965802    96.90786022     0.12241015
 C     10   9   2     2.838907483426   108.42750665    40.26176975
 C     12   1   2     2.825218068696   113.56016926   177.51333576
 C     11   3   1     2.622489866287   119.48762716    79.92194254
 C     11   3   1     2.620598673348   119.55955964   256.94542969
 C     14  12   1     2.901393971058   109.65562258   268.74682019
 C     13  10   9     2.624253739810   120.72021924   252.50449165
 C     13  10   9     2.626794495758   120.54052310    68.20224478
 C     15  11   3     2.616221365871   119.30303864   177.83354437
 C     16  11   3     2.616990437485   119.30513840   182.04877365
 C     21  16  11     2.617481385515   120.17708166     0.44202170
 C     18  13  10     2.619750941097   120.78764365   174.66163949
 C     19  13  10     2.614597397959   120.82961786   185.32850489
 C     24  19  13     2.618288752093   120.14475502     0.00000000
 H      4   3   1     2.071310510074   104.81166984   179.18928036
 H      5   4   3     2.060518725279   112.07420053    60.41436371
 H      5   4   3     2.062283543109   109.66377178   299.88379263
 H      6   4   3     2.061746201968   109.88194391    59.09049023
 H      6   4   3     2.061864482099   112.65394425   298.16028268
 H      7   2   1     2.087942432600   112.18340018   230.21326790
 H      7   2   1     2.058407046347   109.37398055   110.13377028
 H      8   2   1     2.059524404832   109.64762509   249.26693486
 H      8   2   1     2.087774662503   112.76486928   128.43763782
 H      9   2   1     2.060489728656   108.06288525    93.95290592
 H      9   2   1     2.074888645930   112.44097963   212.82204208
 H     10   9   2     2.060285804466   110.26894154   280.01431559
 H     10   9   2     2.060020830778   109.16568123   161.34257030
 H     14  12   1     2.057065597763   111.24496999   147.28476172
 H     14  12   1     2.060414376250   107.68181240    27.08773758
 H     15  11   3     2.040192745828   120.03568714   357.82001767
 H     16  11   3     2.039792923931   120.18277442     1.85285473
 H     17  14  12     2.051214899316   108.97713999   175.57864782
 H     17  14  12     2.053211037327   110.69371951    56.46408231
 H     17  14  12     2.053122588602   111.06465612   294.89647444
 H     18  13  10     2.043129920676   119.51626136   353.62679614
 H     19  13  10     2.040381258110   119.51436439     5.79805358
 H     20  15  11     2.037751334234   119.57327744   179.96904459
 H     21  16  11     2.037799331370   119.57058697   180.28480237
 H     22  21  16     2.037496009878   119.92480267   179.89516940
 H     23  18  13     2.042957660997   120.01249890   178.76257047
 H     24  19  13     2.040207008277   119.91912026   180.34380452
 H     25  24  19     2.039947111905   120.32923587   180.17255409
 H      1   2   3     1.852896145968    21.86753393   180.25655141

---------------------
BASIS SET INFORMATION
---------------------
There are 4 groups of distinct atoms

 Group   1 Type O   : 11s6p2d1f contracted to 5s3p2d1f pattern {62111/411/11/1}
 Group   2 Type N   : 11s6p2d1f contracted to 5s3p2d1f pattern {62111/411/11/1}
 Group   3 Type C   : 11s6p2d1f contracted to 5s3p2d1f pattern {62111/411/11/1}
 Group   4 Type H   : 5s1p contracted to 3s1p pattern {311/1}

Atom   0O    basis set group =>   1
Atom   1N    basis set group =>   2
Atom   2N    basis set group =>   2
Atom   3C    basis set group =>   3
Atom   4C    basis set group =>   3
Atom   5C    basis set group =>   3
Atom   6C    basis set group =>   3
Atom   7C    basis set group =>   3
Atom   8C    basis set group =>   3
Atom   9C    basis set group =>   3
Atom  10C    basis set group =>   3
Atom  11C    basis set group =>   3
Atom  12C    basis set group =>   3
Atom  13C    basis set group =>   3
Atom  14C    basis set group =>   3
Atom  15C    basis set group =>   3
Atom  16C    basis set group =>   3
Atom  17C    basis set group =>   3
Atom  18C    basis set group =>   3
Atom  19C    basis set group =>   3
Atom  20C    basis set group =>   3
Atom  21C    basis set group =>   3
Atom  22C    basis set group =>   3
Atom  23C    basis set group =>   3
Atom  24C    basis set group =>   3
Atom  25H    basis set group =>   4
Atom  26H    basis set group =>   4
Atom  27H    basis set group =>   4
Atom  28H    basis set group =>   4
Atom  29H    basis set group =>   4
Atom  30H    basis set group =>   4
Atom  31H    basis set group =>   4
Atom  32H    basis set group =>   4
Atom  33H    basis set group =>   4
Atom  34H    basis set group =>   4
Atom  35H    basis set group =>   4
Atom  36H    basis set group =>   4
Atom  37H    basis set group =>   4
Atom  38H    basis set group =>   4
Atom  39H    basis set group =>   4
Atom  40H    basis set group =>   4
Atom  41H    basis set group =>   4
Atom  42H    basis set group =>   4
Atom  43H    basis set group =>   4
Atom  44H    basis set group =>   4
Atom  45H    basis set group =>   4
Atom  46H    basis set group =>   4
Atom  47H    basis set group =>   4
Atom  48H    basis set group =>   4
Atom  49H    basis set group =>   4
Atom  50H    basis set group =>   4
Atom  51H    basis set group =>   4
Atom  52H    basis set group =>   4
Atom  53H    basis set group =>   4
---------------------------------
AUXILIARY/J BASIS SET INFORMATION
---------------------------------
There are 4 groups of distinct atoms

 Group   1 Type O   : 12s5p4d2f1g contracted to 6s4p3d1f1g pattern {711111/2111/211/2/1}
 Group   2 Type N   : 12s5p4d2f1g contracted to 6s4p3d1f1g pattern {711111/2111/211/2/1}
 Group   3 Type C   : 12s5p4d2f1g contracted to 6s4p3d1f1g pattern {711111/2111/211/2/1}
 Group   4 Type H   : 5s2p1d contracted to 3s1p1d pattern {311/2/1}

Atom   0O    basis set group =>   1
Atom   1N    basis set group =>   2
Atom   2N    basis set group =>   2
Atom   3C    basis set group =>   3
Atom   4C    basis set group =>   3
Atom   5C    basis set group =>   3
Atom   6C    basis set group =>   3
Atom   7C    basis set group =>   3
Atom   8C    basis set group =>   3
Atom   9C    basis set group =>   3
Atom  10C    basis set group =>   3
Atom  11C    basis set group =>   3
Atom  12C    basis set group =>   3
Atom  13C    basis set group =>   3
Atom  14C    basis set group =>   3
Atom  15C    basis set group =>   3
Atom  16C    basis set group =>   3
Atom  17C    basis set group =>   3
Atom  18C    basis set group =>   3
Atom  19C    basis set group =>   3
Atom  20C    basis set group =>   3
Atom  21C    basis set group =>   3
Atom  22C    basis set group =>   3
Atom  23C    basis set group =>   3
Atom  24C    basis set group =>   3
Atom  25H    basis set group =>   4
Atom  26H    basis set group =>   4
Atom  27H    basis set group =>   4
Atom  28H    basis set group =>   4
Atom  29H    basis set group =>   4
Atom  30H    basis set group =>   4
Atom  31H    basis set group =>   4
Atom  32H    basis set group =>   4
Atom  33H    basis set group =>   4
Atom  34H    basis set group =>   4
Atom  35H    basis set group =>   4
Atom  36H    basis set group =>   4
Atom  37H    basis set group =>   4
Atom  38H    basis set group =>   4
Atom  39H    basis set group =>   4
Atom  40H    basis set group =>   4
Atom  41H    basis set group =>   4
Atom  42H    basis set group =>   4
Atom  43H    basis set group =>   4
Atom  44H    basis set group =>   4
Atom  45H    basis set group =>   4
Atom  46H    basis set group =>   4
Atom  47H    basis set group =>   4
Atom  48H    basis set group =>   4
Atom  49H    basis set group =>   4
Atom  50H    basis set group =>   4
Atom  51H    basis set group =>   4
Atom  52H    basis set group =>   4
Atom  53H    basis set group =>   4


           ************************************************************
           *        Program running with 8 parallel MPI-processes     *
           *              working on a common directory               *
           ************************************************************
------------------------------------------------------------------------------
                           ORCA GTO INTEGRAL CALCULATION
                           -- RI-GTO INTEGRALS CHOSEN --
------------------------------------------------------------------------------
------------------------------------------------------------------------------
                   ___                                                        
                  /   \      - P O W E R E D   B Y -                         
                 /     \                                                     
                 |  |  |   _    _      __       _____    __    __             
                 |  |  |  | |  | |    /  \     |  _  \  |  |  /  |          
                  \  \/   | |  | |   /    \    | | | |  |  | /  /          
                 / \  \   | |__| |  /  /\  \   | |_| |  |  |/  /          
                |  |  |   |  __  | /  /__\  \  |    /   |      \           
                |  |  |   | |  | | |   __   |  |    \   |  |\   \          
                \     /   | |  | | |  |  |  |  | |\  \  |  | \   \       
                 \___/    |_|  |_| |__|  |__|  |_| \__\ |__|  \__/        
                                                                              
                      - O R C A' S   B I G   F R I E N D -                    
                                      &                                       
                       - I N T E G R A L  F E E D E R -                       
                                                                              
 v1 FN, 2020, v2 2021                                                         
------------------------------------------------------------------------------


Reading SHARK input file Fentanyl_OProt_38.SHARKINP.tmp ... ok
----------------------
SHARK INTEGRAL PACKAGE
----------------------

Number of atoms                             ...     54
Number of basis functions                   ...    949
Number of shells                            ...    391
Maximum angular momentum                    ...      3
Integral batch strategy                     ... SHARK/LIBINT Hybrid
RI-J (if used) integral strategy            ... SPLIT-RIJ (Revised 2003 algorithm where possible)
Printlevel                                  ...      1
Contraction scheme used                     ... SEGMENTED contraction
Coulomb Range Separation                    ... NOT USED
Exchange Range Separation                   ... Long Range
   Mu parameter                             ...  0.300000
   Scaling (regular/separated)              ...  0.167000  0.833000
Finite Nucleus Model                        ... NOT USED
Auxiliary Coulomb fitting basis             ... AVAILABLE
   # of basis functions in Aux-J            ...   1544
   # of shells in Aux-J                     ...    520
   Maximum angular momentum in Aux-J        ...      4
Auxiliary J/K fitting basis                 ... NOT available
Auxiliary Correlation fitting basis         ... NOT available
Auxiliary 'external' fitting basis          ... NOT available
Integral threshold                          ...     2.500000e-11
Primitive cut-off                           ...     2.500000e-12
Primitive pair pre-selection threshold      ...     2.500000e-12

Calculating pre-screening integrals         ... done (  0.1 sec) Dimension = 391
Organizing shell pair data                  ... done (  0.6 sec)
Shell pair information
Total number of shell pairs                 ...     76636
Shell pairs after pre-screening             ...     54323
Total number of primitive shell pairs       ...    228112
Primitive shell pairs kept                  ...    107000
          la=0 lb=0:  15671 shell pairs
          la=1 lb=0:  16125 shell pairs
          la=1 lb=1:   4201 shell pairs
          la=2 lb=0:   7363 shell pairs
          la=2 lb=1:   3806 shell pairs
          la=2 lb=2:    890 shell pairs
          la=3 lb=0:   3425 shell pairs
          la=3 lb=1:   1815 shell pairs
          la=3 lb=2:    819 shell pairs
          la=3 lb=3:    208 shell pairs

Calculating one electron integrals          ... done (  0.1 sec)
Calculating RI/J V-Matrix + Cholesky decomp.... done (  0.2 sec)
Calculating Nuclear repulsion               ... done (  0.0 sec) ENN=   2309.646841878818 Eh

SHARK setup successfully completed in   1.7 seconds

Maximum memory used throughout the entire GTOINT-calculation: 78.9 MB
[1703434108.647459] [gra343:28342:0]          mpool.c:42   UCX  WARN  object 0xc58ce80 was not returned to mpool ucp_requests
[1703434108.647502] [gra343:28342:0]          mpool.c:42   UCX  WARN  object 0xc58d040 was not returned to mpool ucp_requests
[1703434108.647517] [gra343:28342:0]          mpool.c:42   UCX  WARN  object 0xc58d200 was not returned to mpool ucp_requests
[1703434108.647531] [gra343:28342:0]          mpool.c:42   UCX  WARN  object 0xc58d3c0 was not returned to mpool ucp_requests
[1703434108.647543] [gra343:28342:0]          mpool.c:42   UCX  WARN  object 0xc58d580 was not returned to mpool ucp_requests
[1703434108.647561] [gra343:28342:0]          mpool.c:42   UCX  WARN  object 0xc58d740 was not returned to mpool ucp_requests
[1703434108.647597] [gra343:28342:0]          mpool.c:42   UCX  WARN  object 0xc58d900 was not returned to mpool ucp_requests
[1703434108.647609] [gra343:28342:0]          mpool.c:42   UCX  WARN  object 0xc58dac0 was not returned to mpool ucp_requests
[1703434108.647620] [gra343:28342:0]          mpool.c:42   UCX  WARN  object 0xc58dc80 was not returned to mpool ucp_requests
[1703434108.647631] [gra343:28342:0]          mpool.c:42   UCX  WARN  object 0xc58de40 was not returned to mpool ucp_requests
[1703434108.647642] [gra343:28342:0]          mpool.c:42   UCX  WARN  object 0xc58e000 was not returned to mpool ucp_requests
[1703434108.647653] [gra343:28342:0]          mpool.c:42   UCX  WARN  object 0xc58e1c0 was not returned to mpool ucp_requests
[1703434108.724729] [gra343:28338:0]          mpool.c:42   UCX  WARN  object 0xb868cc0 was not returned to mpool ucp_requests
[1703434108.724775] [gra343:28338:0]          mpool.c:42   UCX  WARN  object 0xb868e80 was not returned to mpool ucp_requests
[1703434108.724811] [gra343:28338:0]          mpool.c:42   UCX  WARN  object 0xb869040 was not returned to mpool ucp_requests
[1703434108.724825] [gra343:28338:0]          mpool.c:42   UCX  WARN  object 0xb869200 was not returned to mpool ucp_requests
[1703434108.724838] [gra343:28338:0]          mpool.c:42   UCX  WARN  object 0xb8693c0 was not returned to mpool ucp_requests
[1703434108.724850] [gra343:28338:0]          mpool.c:42   UCX  WARN  object 0xb869580 was not returned to mpool ucp_requests
[1703434108.724863] [gra343:28338:0]          mpool.c:42   UCX  WARN  object 0xb869740 was not returned to mpool ucp_requests
[1703434108.724881] [gra343:28338:0]          mpool.c:42   UCX  WARN  object 0xb869900 was not returned to mpool ucp_requests
[1703434108.724893] [gra343:28338:0]          mpool.c:42   UCX  WARN  object 0xb869ac0 was not returned to mpool ucp_requests
[1703434108.724905] [gra343:28338:0]          mpool.c:42   UCX  WARN  object 0xb869c80 was not returned to mpool ucp_requests
[1703434108.724917] [gra343:28338:0]          mpool.c:42   UCX  WARN  object 0xb869e40 was not returned to mpool ucp_requests
[1703434108.724929] [gra343:28338:0]          mpool.c:42   UCX  WARN  object 0xb86a000 was not returned to mpool ucp_requests
[1703434108.725683] [gra343:28340:0]          mpool.c:42   UCX  WARN  object 0xb7b8e80 was not returned to mpool ucp_requests
[1703434108.725719] [gra343:28340:0]          mpool.c:42   UCX  WARN  object 0xb7b9040 was not returned to mpool ucp_requests
[1703434108.725738] [gra343:28340:0]          mpool.c:42   UCX  WARN  object 0xb7b9200 was not returned to mpool ucp_requests
[1703434108.725750] [gra343:28340:0]          mpool.c:42   UCX  WARN  object 0xb7b93c0 was not returned to mpool ucp_requests
[1703434108.725762] [gra343:28340:0]          mpool.c:42   UCX  WARN  object 0xb7b9580 was not returned to mpool ucp_requests
[1703434108.725780] [gra343:28340:0]          mpool.c:42   UCX  WARN  object 0xb7b9740 was not returned to mpool ucp_requests
[1703434108.725791] [gra343:28340:0]          mpool.c:42   UCX  WARN  object 0xb7b9900 was not returned to mpool ucp_requests
[1703434108.725801] [gra343:28340:0]          mpool.c:42   UCX  WARN  object 0xb7b9ac0 was not returned to mpool ucp_requests
[1703434108.725812] [gra343:28340:0]          mpool.c:42   UCX  WARN  object 0xb7b9c80 was not returned to mpool ucp_requests
[1703434108.725822] [gra343:28340:0]          mpool.c:42   UCX  WARN  object 0xb7b9e40 was not returned to mpool ucp_requests
[1703434108.725832] [gra343:28340:0]          mpool.c:42   UCX  WARN  object 0xb7ba000 was not returned to mpool ucp_requests
[1703434108.725843] [gra343:28340:0]          mpool.c:42   UCX  WARN  object 0xb7ba1c0 was not returned to mpool ucp_requests
[1703434108.728178] [gra343:28339:0]          mpool.c:42   UCX  WARN  object 0xb8e6e80 was not returned to mpool ucp_requests
[1703434108.728215] [gra343:28339:0]          mpool.c:42   UCX  WARN  object 0xb8e7040 was not returned to mpool ucp_requests
[1703434108.728227] [gra343:28339:0]          mpool.c:42   UCX  WARN  object 0xb8e7200 was not returned to mpool ucp_requests
[1703434108.728237] [gra343:28339:0]          mpool.c:42   UCX  WARN  object 0xb8e73c0 was not returned to mpool ucp_requests
[1703434108.728247] [gra343:28339:0]          mpool.c:42   UCX  WARN  object 0xb8e7580 was not returned to mpool ucp_requests
[1703434108.728256] [gra343:28339:0]          mpool.c:42   UCX  WARN  object 0xb8e7740 was not returned to mpool ucp_requests
[1703434108.728265] [gra343:28339:0]          mpool.c:42   UCX  WARN  object 0xb8e7900 was not returned to mpool ucp_requests
[1703434108.728273] [gra343:28339:0]          mpool.c:42   UCX  WARN  object 0xb8e7ac0 was not returned to mpool ucp_requests
[1703434108.728282] [gra343:28339:0]          mpool.c:42   UCX  WARN  object 0xb8e7c80 was not returned to mpool ucp_requests
[1703434108.728291] [gra343:28339:0]          mpool.c:42   UCX  WARN  object 0xb8e7e40 was not returned to mpool ucp_requests
[1703434108.728299] [gra343:28339:0]          mpool.c:42   UCX  WARN  object 0xb8e8000 was not returned to mpool ucp_requests
[1703434108.728308] [gra343:28339:0]          mpool.c:42   UCX  WARN  object 0xb8e81c0 was not returned to mpool ucp_requests
[1703434108.730682] [gra343:28341:0]          mpool.c:42   UCX  WARN  object 0xbee1e80 was not returned to mpool ucp_requests
[1703434108.730719] [gra343:28341:0]          mpool.c:42   UCX  WARN  object 0xbee2040 was not returned to mpool ucp_requests
[1703434108.730733] [gra343:28341:0]          mpool.c:42   UCX  WARN  object 0xbee2200 was not returned to mpool ucp_requests
[1703434108.730745] [gra343:28341:0]          mpool.c:42   UCX  WARN  object 0xbee23c0 was not returned to mpool ucp_requests
[1703434108.730755] [gra343:28341:0]          mpool.c:42   UCX  WARN  object 0xbee2580 was not returned to mpool ucp_requests
[1703434108.730766] [gra343:28341:0]          mpool.c:42   UCX  WARN  object 0xbee2740 was not returned to mpool ucp_requests
[1703434108.730776] [gra343:28341:0]          mpool.c:42   UCX  WARN  object 0xbee2900 was not returned to mpool ucp_requests
[1703434108.730787] [gra343:28341:0]          mpool.c:42   UCX  WARN  object 0xbee2ac0 was not returned to mpool ucp_requests
[1703434108.730797] [gra343:28341:0]          mpool.c:42   UCX  WARN  object 0xbee2c80 was not returned to mpool ucp_requests
[1703434108.730807] [gra343:28341:0]          mpool.c:42   UCX  WARN  object 0xbee2e40 was not returned to mpool ucp_requests
[1703434108.730828] [gra343:28341:0]          mpool.c:42   UCX  WARN  object 0xbee3000 was not returned to mpool ucp_requests
[1703434108.730839] [gra343:28341:0]          mpool.c:42   UCX  WARN  object 0xbee31c0 was not returned to mpool ucp_requests
[1703434108.732709] [gra343:28337:0]          mpool.c:42   UCX  WARN  object 0xbe9f200 was not returned to mpool ucp_requests
[1703434108.732841] [gra343:28337:0]          mpool.c:42   UCX  WARN  object 0xbe9f3c0 was not returned to mpool ucp_requests
[1703434108.732957] [gra343:28337:0]          mpool.c:42   UCX  WARN  object 0xbe9f580 was not returned to mpool ucp_requests
[1703434108.733070] [gra343:28337:0]          mpool.c:42   UCX  WARN  object 0xbe9f740 was not returned to mpool ucp_requests
[1703434108.733182] [gra343:28337:0]          mpool.c:42   UCX  WARN  object 0xbe9f900 was not returned to mpool ucp_requests
[1703434108.733295] [gra343:28337:0]          mpool.c:42   UCX  WARN  object 0xbe9fac0 was not returned to mpool ucp_requests
[1703434108.733419] [gra343:28337:0]          mpool.c:42   UCX  WARN  object 0xbe9fc80 was not returned to mpool ucp_requests
[1703434108.733532] [gra343:28337:0]          mpool.c:42   UCX  WARN  object 0xbe9fe40 was not returned to mpool ucp_requests
[1703434108.733645] [gra343:28337:0]          mpool.c:42   UCX  WARN  object 0xbea0000 was not returned to mpool ucp_requests
[1703434108.736683] [gra343:28343:0]          mpool.c:42   UCX  WARN  object 0xaa86c40 was not returned to mpool ucp_requests
[1703434108.736718] [gra343:28343:0]          mpool.c:42   UCX  WARN  object 0xaa86e00 was not returned to mpool ucp_requests
[1703434108.736730] [gra343:28343:0]          mpool.c:42   UCX  WARN  object 0xaa86fc0 was not returned to mpool ucp_requests
[1703434108.736749] [gra343:28343:0]          mpool.c:42   UCX  WARN  object 0xaa87180 was not returned to mpool ucp_requests
[1703434108.736759] [gra343:28343:0]          mpool.c:42   UCX  WARN  object 0xaa87340 was not returned to mpool ucp_requests
[1703434108.736776] [gra343:28343:0]          mpool.c:42   UCX  WARN  object 0xaa87500 was not returned to mpool ucp_requests
[1703434108.736786] [gra343:28343:0]          mpool.c:42   UCX  WARN  object 0xaa876c0 was not returned to mpool ucp_requests
[1703434108.736796] [gra343:28343:0]          mpool.c:42   UCX  WARN  object 0xaa87880 was not returned to mpool ucp_requests
[1703434108.736805] [gra343:28343:0]          mpool.c:42   UCX  WARN  object 0xaa87a40 was not returned to mpool ucp_requests
[1703434108.736815] [gra343:28343:0]          mpool.c:42   UCX  WARN  object 0xaa87c00 was not returned to mpool ucp_requests
[1703434108.736825] [gra343:28343:0]          mpool.c:42   UCX  WARN  object 0xaa87dc0 was not returned to mpool ucp_requests
[1703434108.736834] [gra343:28343:0]          mpool.c:42   UCX  WARN  object 0xaa87f80 was not returned to mpool ucp_requests


           ************************************************************
           *        Program running with 8 parallel MPI-processes     *
           *              working on a common directory               *
           ************************************************************
-------------------------------------------------------------------------------
                                 ORCA SCF
-------------------------------------------------------------------------------

------------
SCF SETTINGS
------------
Hamiltonian:
 Density Functional     Method          .... DFT(GTOs)
 Exchange Functional    Exchange        .... WB97X-V
 Correlation Functional Correlation     .... WB97X-V
 Gradients option       PostSCFGGA      .... off
 Hybrid DFT is turned on
   Fraction HF Exchange ScalHFX         ....  0.167000
   Scaling of DF-GGA-X  ScalDFX         ....  0.000000
   Scaling of DF-GGA-C  ScalDFC         ....  1.000000
   Scaling of DF-LDA-C  ScalLDAC        ....  1.000000
   Perturbative correction              ....  0.000000
   Density functional embedding theory  .... OFF
 Long-range corrected/Screened/Range-Separated Hybrid DFT is turned on
   Amount of maximum screened exact exchange              ....  0.833000
   Range separation parameter mu (erf(mu*r12)/r12)        ....  0.300000
 RI-approximation to the Coulomb term is turned on
   Number of AuxJ basis functions       .... 1544
   RIJ-COSX (HFX calculated with COS-X)).... on


General Settings:
 Integral files         IntName         .... Fentanyl_OProt_38
 Hartree-Fock type      HFTyp           .... RHF
 Total Charge           Charge          ....    1
 Multiplicity           Mult            ....    1
 Number of Electrons    NEL             ....  182
 Basis Dimension        Dim             ....  949
 Nuclear Repulsion      ENuc            ....   2309.6468418788 Eh

Convergence Acceleration:
 DIIS                   CNVDIIS         .... on
   Start iteration      DIISMaxIt       ....    12
   Startup error        DIISStart       ....  0.200000
   # of expansion vecs  DIISMaxEq       ....     5
   Bias factor          DIISBfac        ....   1.050
   Max. coefficient     DIISMaxC        ....  10.000
 Trust-Rad. Augm. Hess. CNVTRAH         .... auto
   Auto Start mean grad. ratio tolernc. ....  1.125000
   Auto Start start iteration           ....    20
   Auto Start num. interpolation iter.  ....    10
   Max. Number of Micro iterations      ....    16
   Max. Number of Macro iterations      .... Maxiter - #DIIS iter
   Number of Davidson start vectors     ....     2
   Converg. threshold I  (grad. norm)   ....   1.000e-05
   Converg. threshold II (energy diff.) ....   1.000e-08
   Grad. Scal. Fac. for Micro threshold ....   0.100
   Minimum threshold for Micro iter.    ....   0.010
   NR start threshold (gradient norm)   ....   0.001
   Initial trust radius                 ....   0.400
   Minimum AH scaling param. (alpha)    ....   1.000
   Maximum AH scaling param. (alpha)    .... 1000.000
   Orbital update algorithm             .... Taylor
   White noise on init. David. guess    .... on
   Maximum white noise                  ....   0.010
   Quad. conv. algorithm                .... NR
 SOSCF                  CNVSOSCF        .... on
   Start iteration      SOSCFMaxIt      ....   150
   Startup grad/error   SOSCFStart      ....  0.003300
 Level Shifting         CNVShift        .... on
   Level shift para.    LevelShift      ....    0.2500
   Turn off err/grad.   ShiftErr        ....    0.0010
 Zerner damping         CNVZerner       .... off
 Static damping         CNVDamp         .... on
   Fraction old density DampFac         ....    0.7000
   Max. Damping (<1)    DampMax         ....    0.9800
   Min. Damping (>=0)   DampMin         ....    0.0000
   Turn off err/grad.   DampErr         ....    0.1000
 Fernandez-Rico         CNVRico         .... off

SCF Procedure:
 Maximum # iterations   MaxIter         ....   125
 SCF integral mode      SCFMode         .... Direct
   Integral package                     .... SHARK and LIBINT hybrid scheme
 Reset frequency        DirectResetFreq ....    20
 Integral Threshold     Thresh          ....  2.500e-11 Eh
 Primitive CutOff       TCut            ....  2.500e-12 Eh

Convergence Tolerance:
 Convergence Check Mode ConvCheckMode   .... Total+1el-Energy
 Convergence forced     ConvForced      .... 0
 Energy Change          TolE            ....  1.000e-08 Eh
 1-El. energy change                    ....  1.000e-05 Eh
 Orbital Gradient       TolG            ....  1.000e-05
 Orbital Rotation angle TolX            ....  1.000e-05
 DIIS Error             TolErr          ....  5.000e-07


Diagonalization of the overlap matrix:
Smallest eigenvalue                        ... 5.590e-06
Time for diagonalization                   ...    0.305 sec
Threshold for overlap eigenvalues          ... 1.000e-08
Number of eigenvalues below threshold      ... 0
Time for construction of square roots      ...    0.163 sec
Total time needed                          ...    0.476 sec

Time for model grid setup =    0.515 sec

------------------------------
INITIAL GUESS: MODEL POTENTIAL
------------------------------
Loading Hartree-Fock densities                     ... done
Calculating cut-offs                               ... done
Initializing the effective Hamiltonian             ... done
Setting up the integral package (SHARK)            ... done
Starting the Coulomb interaction                   ... done (   1.3 sec)
Reading the grid                                   ... done
Mapping shells                                     ... done
Starting the XC term evaluation                    ... done (   0.6 sec)
  promolecular density results
     # of electrons  =    183.002388396
     EX              =    -95.413844827
     EC              =     -7.510989993
     EX+EC           =   -102.924834820
Transforming the Hamiltonian                       ... done (   0.1 sec)
Diagonalizing the Hamiltonian                      ... done (   0.3 sec)
Back transforming the eigenvectors                 ... done (   0.1 sec)
Now organizing SCF variables                       ... done
                      ------------------
                      INITIAL GUESS DONE (   2.9 sec)
                      ------------------
-------------------
DFT GRID GENERATION
-------------------

General Integration Accuracy     IntAcc      ... 4.959
Radial Grid Type                 RadialGrid  ... OptM3 with GC (2021)
Angular Grid (max. ang.)         AngularGrid ... 6 (Lebedev-590)
Angular grid pruning method      GridPruning ... 4 (adaptive)
Weight generation scheme         WeightScheme... Becke
Basis function cutoff            BFCut       ... 1.0000e-11
Integration weight cutoff        WCut        ... 1.0000e-14
Angular grids for H and He will be reduced by one unit
Partially contracted basis set               ... off
Rotationally invariant grid construction     ... off

Total number of grid points                  ...   594295
Total number of batches                      ...     9314
Average number of points per batch           ...       63
Average number of grid points per atom       ...    11005
Time for grid setup =    8.436 sec

--------------------
COSX GRID GENERATION
--------------------

GRIDX 1
-------
General Integration Accuracy     IntAcc      ... 4.020
Radial Grid Type                 RadialGrid  ... OptM3 with GC (2021)
Angular Grid (max. ang.)         AngularGrid ... 2 (Lebedev-110)
Angular grid pruning method      GridPruning ... 4 (adaptive)
Weight generation scheme         WeightScheme... Becke
Basis function cutoff            BFCut       ... 1.0000e-11
Integration weight cutoff        WCut        ... 1.0000e-14
Angular grids for H and He will be reduced by one unit
Partially contracted basis set               ... on
Rotationally invariant grid construction     ... off

Total number of grid points                  ...    63947
Total number of batches                      ...     1026
Average number of points per batch           ...       62
Average number of grid points per atom       ...     1184
UseSFitting                                  ... on

GRIDX 2
-------
General Integration Accuracy     IntAcc      ... 4.338
Radial Grid Type                 RadialGrid  ... OptM3 with GC (2021)
Angular Grid (max. ang.)         AngularGrid ... 3 (Lebedev-194)
Angular grid pruning method      GridPruning ... 4 (adaptive)
Weight generation scheme         WeightScheme... Becke
Basis function cutoff            BFCut       ... 1.0000e-11
Integration weight cutoff        WCut        ... 1.0000e-14
Angular grids for H and He will be reduced by one unit
Partially contracted basis set               ... on
Rotationally invariant grid construction     ... off

Total number of grid points                  ...   138965
Total number of batches                      ...     2200
Average number of points per batch           ...       63
Average number of grid points per atom       ...     2573
UseSFitting                                  ... on

GRIDX 3
-------
General Integration Accuracy     IntAcc      ... 4.871
Radial Grid Type                 RadialGrid  ... OptM3 with GC (2021)
Angular Grid (max. ang.)         AngularGrid ... 4 (Lebedev-302)
Angular grid pruning method      GridPruning ... 4 (adaptive)
Weight generation scheme         WeightScheme... Becke
Basis function cutoff            BFCut       ... 1.0000e-11
Integration weight cutoff        WCut        ... 1.0000e-14
Angular grids for H and He will be reduced by one unit
[...]
 71:   1036.08   0.000020    0.10  0.000006  ( 0.002287  0.000517  0.000636)
 72:   1042.37   0.001023    5.17  0.000306  ( 0.003184 -0.011293  0.012984)
 73:   1046.48   0.000008    0.04  0.000003  ( 0.000275 -0.000572  0.001452)
 74:   1054.17   0.000940    4.75  0.000278  ( 0.007981  0.009758  0.010929)
 75:   1062.93   0.000126    0.63  0.000037  ( 0.005474 -0.000247 -0.002614)
 76:   1067.78   0.000190    0.96  0.000056  (-0.005235 -0.002496  0.004680)
 77:   1070.25   0.002467   12.47  0.000719  ( 0.024921 -0.009487 -0.002853)
 78:   1097.81   0.006303   31.85  0.001792  (-0.038265  0.017661 -0.003947)
 79:   1115.96   0.001922    9.71  0.000537  (-0.013432 -0.012955 -0.013755)
 80:   1119.50   0.006744   34.08  0.001880  ( 0.036857  0.008687 -0.021123)
 81:   1120.53   0.007250   36.64  0.002019  ( 0.029651  0.028305 -0.018406)
 82:   1138.97   0.002299   11.62  0.000630  ( 0.015058 -0.018520  0.007759)
 83:   1161.88   0.000014    0.07  0.000004  (-0.000805 -0.001702 -0.000589)
 84:   1177.31   0.000709    3.58  0.000188  (-0.000712  0.007154  0.011674)
 85:   1187.44   0.005173   26.14  0.001360  (-0.032261  0.007094  0.016385)
 86:   1189.30   0.000855    4.32  0.000224  (-0.010355  0.003933  0.010083)
 87:   1195.68   0.032222  162.84  0.008410  ( 0.091140  0.006555 -0.007764)
 88:   1204.17   0.000017    0.09  0.000004  (-0.001425 -0.001070  0.001120)
 89:   1205.62   0.000082    0.41  0.000021  (-0.002394  0.000647 -0.003872)
 90:   1211.44   0.002535   12.81  0.000653  (-0.023404 -0.001508  0.010142)
 91:   1213.37   0.001304    6.59  0.000335  (-0.016263  0.004247  0.007268)
 92:   1242.05   0.000253    1.28  0.000064  ( 0.006753 -0.004208 -0.000444)
 93:   1259.81   0.000449    2.27  0.000111  (-0.004034 -0.009132 -0.003382)
 94:   1273.02   0.001491    7.54  0.000366  (-0.009602 -0.016512 -0.000828)
 95:   1279.37   0.000802    4.06  0.000196  ( 0.001758  0.011151 -0.008264)
 96:   1289.22   0.003305   16.70  0.000800  ( 0.023522  0.011391 -0.010811)
 97:   1311.36   0.001551    7.84  0.000369  ( 0.003792 -0.010863 -0.015382)
 98:   1312.40   0.000167    0.84  0.000040  ( 0.006054 -0.000261  0.001695)
 99:   1323.19   0.002842   14.36  0.000670  (-0.014623 -0.020911  0.004381)
100:   1335.85   0.003616   18.27  0.000845  ( 0.011760  0.001287 -0.026547)
101:   1350.35   0.001542    7.79  0.000356  (-0.017903 -0.003279  0.005000)
102:   1354.86   0.000286    1.44  0.000066  (-0.005768  0.002955  0.004877)
103:   1358.49   0.001666    8.42  0.000383  ( 0.017712 -0.005457 -0.006263)
104:   1360.20   0.000111    0.56  0.000026  ( 0.000167 -0.002106 -0.004594)
105:   1369.39   0.003901   19.71  0.000889  (-0.016322  0.005531  0.024331)
106:   1384.30   0.005947   30.06  0.001341  ( 0.035870  0.005580 -0.004786)
107:   1385.25   0.001556    7.86  0.000350  (-0.009857 -0.006096 -0.014701)
108:   1398.17   0.001034    5.23  0.000231  ( 0.013899  0.002124 -0.005754)
109:   1406.52   0.000328    1.66  0.000073  (-0.006981 -0.001866  0.004526)
110:   1417.23   0.005553   28.06  0.001223  ( 0.000132 -0.031595  0.014985)
111:   1422.34   0.002663   13.46  0.000584  (-0.020657  0.008780  0.008971)
112:   1424.92   0.005190   26.23  0.001137  ( 0.032982  0.005217  0.004655)
113:   1448.60   0.008187   41.37  0.001764  (-0.041532  0.006219 -0.000122)
114:   1484.49   0.006111   30.88  0.001285  (-0.031899  0.004979 -0.015563)
115:   1496.52   0.000638    3.22  0.000133  ( 0.010720  0.004197  0.000716)
116:   1499.87   0.000749    3.78  0.000156  ( 0.011870 -0.003301 -0.002005)
117:   1503.31   0.000287    1.45  0.000060  ( 0.004477  0.001864 -0.006013)
118:   1506.19   0.001792    9.06  0.000371  (-0.013832 -0.011146  0.007467)
119:   1506.87   0.000385    1.95  0.000080  ( 0.002770  0.008459  0.000780)
120:   1509.08   0.000523    2.64  0.000108  (-0.006510  0.005761 -0.005701)
121:   1510.41   0.001449    7.32  0.000299  (-0.006554 -0.007661 -0.014062)
122:   1511.87   0.004696   23.73  0.000969  ( 0.008348  0.011600  0.027658)
123:   1520.13   0.001404    7.10  0.000288  (-0.005158 -0.014887  0.006331)
124:   1527.20   0.005272   26.64  0.001077  ( 0.023116 -0.022811  0.004750)
125:   1533.95   0.011911   60.19  0.002423  (-0.038910  0.030069 -0.002242)
126:   1551.52   0.006686   33.79  0.001345  ( 0.035876 -0.000856 -0.007548)
127:   1554.81   0.002290   11.57  0.000460  ( 0.002154 -0.018800  0.010074)
128:   1670.34   0.000146    0.74  0.000027  (-0.000544  0.003206  0.004085)
129:   1677.08   0.025232  127.51  0.004695  ( 0.045932  0.039059 -0.032552)
130:   1680.56   0.001041    5.26  0.000193  (-0.004563 -0.007068 -0.011069)
131:   1692.90   0.000382    1.93  0.000070  ( 0.002152 -0.006958  0.004169)
132:   1698.00   0.049423  249.76  0.009083  (-0.049097 -0.067218  0.046416)
133:   2961.68   0.007301   36.90  0.000769  ( 0.014625  0.023054  0.004892)
134:   2965.91   0.016927   85.54  0.001781  (-0.016883 -0.028272  0.026394)
135:   3008.28   0.015806   79.87  0.001640  (-0.014048  0.035785 -0.012715)
136:   3078.83   0.002381   12.03  0.000241  ( 0.008668 -0.004454  0.012099)
137:   3083.09   0.003438   17.37  0.000348  (-0.011474  0.005841 -0.013498)
138:   3084.04   0.001415    7.15  0.000143  ( 0.003942  0.001949  0.011127)
139:   3084.65   0.003327   16.81  0.000337  ( 0.011358 -0.013659 -0.004587)
140:   3108.75   0.000523    2.64  0.000053  ( 0.003172 -0.001945  0.006220)
141:   3113.04   0.000730    3.69  0.000073  ( 0.005596  0.006330 -0.001354)
142:   3116.17   0.000242    1.22  0.000024  ( 0.001630 -0.000385  0.004629)
143:   3125.16   0.001427    7.21  0.000143  ( 0.010253  0.005088  0.003396)
144:   3127.33   0.002430   12.28  0.000243  ( 0.001723 -0.006515 -0.014039)
145:   3133.51   0.002345   11.85  0.000234  ( 0.006122 -0.007224 -0.011994)
146:   3137.28   0.005603   28.32  0.000557  ( 0.011154  0.008468 -0.019006)
147:   3142.69   0.003110   15.72  0.000309  (-0.013682 -0.010201 -0.004192)
148:   3159.93   0.001551    7.84  0.000153  ( 0.008842  0.008134 -0.002970)
149:   3171.58   0.000839    4.24  0.000083  (-0.002877  0.008613  0.000311)
150:   3181.56   0.001212    6.13  0.000119  (-0.000010 -0.004709  0.009835)
151:   3187.99   0.000893    4.51  0.000087  (-0.002631  0.008734  0.002041)
152:   3189.40   0.000761    3.84  0.000074  ( 0.007758  0.000957 -0.003650)
153:   3200.42   0.000585    2.95  0.000057  (-0.000318  0.001993 -0.007276)
154:   3209.24   0.000463    2.34  0.000045  ( 0.006217  0.000012 -0.002529)
155:   3209.36   0.002544   12.86  0.000247  ( 0.004202 -0.009763 -0.011594)
156:   3212.15   0.000036    0.18  0.000003  (-0.001620 -0.000525  0.000774)
157:   3220.18   0.000466    2.36  0.000045  ( 0.006328  0.000958 -0.002050)
158:   3223.04   0.001079    5.45  0.000104  (-0.001708  0.007482 -0.006751)
159:   3228.99   0.000230    1.16  0.000022  (-0.000365 -0.001705 -0.004382)
160:   3237.31   0.000084    0.42  0.000008  ( 0.002715  0.000488 -0.000689)
161:   3720.21   0.056957  287.84  0.004778  ( 0.063986 -0.025976  0.002965)

* The epsilon (eps) is given for a Dirac delta lineshape.
** The dipole moment derivative (T) already includes vibrational overlap.

The first frequency considered to be a vibration is 6
The total number of vibrations considered is 156


--------------------------
THERMOCHEMISTRY AT 298.15K
--------------------------

Temperature         ... 298.15 K
Pressure            ... 1.00 atm
Total Mass          ... 337.49 AMU

Throughout the following assumptions are being made:
  (1) The electronic state is orbitally nondegenerate
  (2) There are no thermally accessible electronically excited states
  (3) Hindered rotations indicated by low frequency modes are not
      treated as such but are treated as vibrations and this may
      cause some error
  (4) All equations used are the standard statistical mechanics
      equations for an ideal gas
  (5) All vibrations are strictly harmonic

freq.      11.10  E(vib)   ...       0.58 
freq.      24.08  E(vib)   ...       0.56 
freq.      28.42  E(vib)   ...       0.55 
freq.      40.28  E(vib)   ...       0.54 
freq.      42.62  E(vib)   ...       0.53 
freq.      60.10  E(vib)   ...       0.51 
freq.      66.38  E(vib)   ...       0.50 
freq.      76.30  E(vib)   ...       0.49 
freq.      83.74  E(vib)   ...       0.48 
freq.     118.03  E(vib)   ...       0.44 
freq.     143.10  E(vib)   ...       0.41 
freq.     162.28  E(vib)   ...       0.39 
freq.     196.82  E(vib)   ...       0.36 
freq.     209.23  E(vib)   ...       0.34 
freq.     229.27  E(vib)   ...       0.32 
freq.     233.10  E(vib)   ...       0.32 
freq.     241.84  E(vib)   ...       0.31 
freq.     250.93  E(vib)   ...       0.30 
freq.     292.48  E(vib)   ...       0.27 
freq.     321.08  E(vib)   ...       0.25 
freq.     347.15  E(vib)   ...       0.23 
freq.     358.81  E(vib)   ...       0.22 
freq.     391.73  E(vib)   ...       0.20 
freq.     398.13  E(vib)   ...       0.20 
freq.     422.02  E(vib)   ...       0.18 
freq.     422.57  E(vib)   ...       0.18 
freq.     441.77  E(vib)   ...       0.17 
freq.     469.62  E(vib)   ...       0.16 
freq.     474.26  E(vib)   ...       0.15 
freq.     479.12  E(vib)   ...       0.15 
freq.     509.95  E(vib)   ...       0.14 
freq.     540.85  E(vib)   ...       0.12 
freq.     550.33  E(vib)   ...       0.12 
freq.     584.20  E(vib)   ...       0.11 
freq.     607.02  E(vib)   ...       0.10 
freq.     612.04  E(vib)   ...       0.10 
freq.     637.63  E(vib)   ...       0.09 
freq.     638.59  E(vib)   ...       0.09 
freq.     681.11  E(vib)   ...       0.08 
freq.     726.00  E(vib)   ...       0.06 
freq.     729.25  E(vib)   ...       0.06 
freq.     739.38  E(vib)   ...       0.06 
freq.     770.40  E(vib)   ...       0.05 
freq.     783.21  E(vib)   ...       0.05 
freq.     788.92  E(vib)   ...       0.05 
freq.     792.98  E(vib)   ...       0.05 
freq.     802.62  E(vib)   ...       0.05 
freq.     812.11  E(vib)   ...       0.05 
freq.     834.59  E(vib)   ...       0.04 
freq.     866.14  E(vib)   ...       0.04 
freq.     874.75  E(vib)   ...       0.04 
freq.     887.00  E(vib)   ...       0.04 
freq.     922.18  E(vib)   ...       0.03 
freq.     941.99  E(vib)   ...       0.03 
freq.     966.52  E(vib)   ...       0.03 
freq.     966.91  E(vib)   ...       0.03 
freq.     972.01  E(vib)   ...       0.03 
freq.     978.76  E(vib)   ...       0.03 
freq.    1002.75  E(vib)   ...       0.02 
freq.    1015.90  E(vib)   ...       0.02 
freq.    1017.65  E(vib)   ...       0.02 
freq.    1019.43  E(vib)   ...       0.02 
freq.    1020.96  E(vib)   ...       0.02 
freq.    1027.28  E(vib)   ...       0.02 
freq.    1034.87  E(vib)   ...       0.02 
freq.    1036.08  E(vib)   ...       0.02 
freq.    1042.37  E(vib)   ...       0.02 
freq.    1046.48  E(vib)   ...       0.02 
freq.    1054.17  E(vib)   ...       0.02 
freq.    1062.93  E(vib)   ...       0.02 
freq.    1067.78  E(vib)   ...       0.02 
freq.    1070.25  E(vib)   ...       0.02 
freq.    1097.81  E(vib)   ...       0.02 
freq.    1115.96  E(vib)   ...       0.01 
freq.    1119.50  E(vib)   ...       0.01 
freq.    1120.53  E(vib)   ...       0.01 
freq.    1138.97  E(vib)   ...       0.01 
freq.    1161.88  E(vib)   ...       0.01 
freq.    1177.31  E(vib)   ...       0.01 
freq.    1187.44  E(vib)   ...       0.01 
freq.    1189.30  E(vib)   ...       0.01 
freq.    1195.68  E(vib)   ...       0.01 
freq.    1204.17  E(vib)   ...       0.01 
freq.    1205.62  E(vib)   ...       0.01 
freq.    1211.44  E(vib)   ...       0.01 
freq.    1213.37  E(vib)   ...       0.01 
freq.    1242.05  E(vib)   ...       0.01 
freq.    1259.81  E(vib)   ...       0.01 
freq.    1273.02  E(vib)   ...       0.01 
freq.    1279.37  E(vib)   ...       0.01 
freq.    1289.22  E(vib)   ...       0.01 
freq.    1311.36  E(vib)   ...       0.01 
freq.    1312.40  E(vib)   ...       0.01 
freq.    1323.19  E(vib)   ...       0.01 
freq.    1335.85  E(vib)   ...       0.01 
freq.    1350.35  E(vib)   ...       0.01 
freq.    1354.86  E(vib)   ...       0.01 
freq.    1358.49  E(vib)   ...       0.01 
freq.    1360.20  E(vib)   ...       0.01 
freq.    1369.39  E(vib)   ...       0.01 
freq.    1384.30  E(vib)   ...       0.00 
freq.    1385.25  E(vib)   ...       0.00 
freq.    1398.17  E(vib)   ...       0.00 
freq.    1406.52  E(vib)   ...       0.00 
freq.    1417.23  E(vib)   ...       0.00 
freq.    1422.34  E(vib)   ...       0.00 
freq.    1424.92  E(vib)   ...       0.00 
freq.    1448.60  E(vib)   ...       0.00 
freq.    1484.49  E(vib)   ...       0.00 
freq.    1496.52  E(vib)   ...       0.00 
freq.    1499.87  E(vib)   ...       0.00 
freq.    1503.31  E(vib)   ...       0.00 
freq.    1506.19  E(vib)   ...       0.00 
freq.    1506.87  E(vib)   ...       0.00 
freq.    1509.08  E(vib)   ...       0.00 
freq.    1510.41  E(vib)   ...       0.00 
freq.    1511.87  E(vib)   ...       0.00 
freq.    1520.13  E(vib)   ...       0.00 
freq.    1527.20  E(vib)   ...       0.00 
freq.    1533.95  E(vib)   ...       0.00 
freq.    1551.52  E(vib)   ...       0.00 
freq.    1554.81  E(vib)   ...       0.00 
freq.    1670.34  E(vib)   ...       0.00 
freq.    1677.08  E(vib)   ...       0.00 
freq.    1680.56  E(vib)   ...       0.00 
freq.    1692.90  E(vib)   ...       0.00 
freq.    1698.00  E(vib)   ...       0.00 
freq.    2961.68  E(vib)   ...       0.00 
freq.    2965.91  E(vib)   ...       0.00 
freq.    3008.28  E(vib)   ...       0.00 
freq.    3078.83  E(vib)   ...       0.00 
freq.    3083.09  E(vib)   ...       0.00 
freq.    3084.04  E(vib)   ...       0.00 
freq.    3084.65  E(vib)   ...       0.00 
freq.    3108.75  E(vib)   ...       0.00 
freq.    3113.04  E(vib)   ...       0.00 
freq.    3116.17  E(vib)   ...       0.00 
freq.    3125.16  E(vib)   ...       0.00 
freq.    3127.33  E(vib)   ...       0.00 
freq.    3133.51  E(vib)   ...       0.00 
freq.    3137.28  E(vib)   ...       0.00 
freq.    3142.69  E(vib)   ...       0.00 
freq.    3159.93  E(vib)   ...       0.00 
freq.    3171.58  E(vib)   ...       0.00 
freq.    3181.56  E(vib)   ...       0.00 
freq.    3187.99  E(vib)   ...       0.00 
freq.    3189.40  E(vib)   ...       0.00 
freq.    3200.42  E(vib)   ...       0.00 
freq.    3209.24  E(vib)   ...       0.00 
freq.    3209.36  E(vib)   ...       0.00 
freq.    3212.15  E(vib)   ...       0.00 
freq.    3220.18  E(vib)   ...       0.00 
freq.    3223.04  E(vib)   ...       0.00 
freq.    3228.99  E(vib)   ...       0.00 
freq.    3237.31  E(vib)   ...       0.00 
freq.    3720.21  E(vib)   ...       0.00 

------------
INNER ENERGY
------------

The inner energy is: U= E(el) + E(ZPE) + E(vib) + E(rot) + E(trans)
    E(el)   - is the total energy from the electronic structure calculation
              = E(kin-el) + E(nuc-el) + E(el-el) + E(nuc-nuc)
    E(ZPE)  - the the zero temperature vibrational energy from the frequency calculation
    E(vib)  - the the finite temperature correction to E(ZPE) due to population
              of excited vibrational states
    E(rot)  - is the rotational thermal energy
    E(trans)- is the translational thermal energy

Summary of contributions to the inner energy U:
Electronic energy                ...  -1041.20895288 Eh
Zero point energy                ...      0.47927045 Eh     300.75 kcal/mol
Thermal vibrational correction   ...      0.02018423 Eh      12.67 kcal/mol
Thermal rotational correction    ...      0.00141627 Eh       0.89 kcal/mol
Thermal translational correction ...      0.00141627 Eh       0.89 kcal/mol
-----------------------------------------------------------------------
Total thermal energy                  -1040.70666566 Eh


Summary of corrections to the electronic energy:
(perhaps to be used in another calculation)
Total thermal correction                  0.02301677 Eh      14.44 kcal/mol
Non-thermal (ZPE) correction              0.47927045 Eh     300.75 kcal/mol
-----------------------------------------------------------------------
Total correction                          0.50228722 Eh     315.19 kcal/mol


--------
ENTHALPY
--------

The enthalpy is H = U + kB*T
                kB is Boltzmann's constant
Total free energy                 ...  -1040.70666566 Eh 
Thermal Enthalpy correction       ...      0.00094421 Eh       0.59 kcal/mol
-----------------------------------------------------------------------
Total Enthalpy                    ...  -1040.70572145 Eh


Note: Only C1 symmetry has been detected, increase convergence thresholds 
      if your molecule has a higher symmetry. Symmetry factor of 1.0 is   
      used for the rotational entropy correction. 
 

Note: Rotational entropy computed according to Herzberg 
Infrared and Raman Spectra, Chapter V,1, Van Nostrand Reinhold, 1945 
Point Group:  C1, Symmetry Number:   1  
Rotational constants in cm-1:     0.013731     0.004609     0.003952 

Vibrational entropy computed according to the QRRHO of S. Grimme
Chem.Eur.J. 2012 18 9955


-------
ENTROPY
-------

The entropy contributions are T*S = T*(S(el)+S(vib)+S(rot)+S(trans))
     S(el)   - electronic entropy
     S(vib)  - vibrational entropy
     S(rot)  - rotational entropy
     S(trans)- translational entropy
The entropies will be listed as multiplied by the temperature to get
units of energy

Electronic entropy                ...      0.00000000 Eh      0.00 kcal/mol
Vibrational entropy               ...      0.03617074 Eh     22.70 kcal/mol
Rotational entropy                ...      0.01668725 Eh     10.47 kcal/mol
Translational entropy             ...      0.02059393 Eh     12.92 kcal/mol
-----------------------------------------------------------------------
Final entropy term                ...      0.07345192 Eh     46.09 kcal/mol

In case the symmetry of your molecule has not been determined correctly
or in case you have a reason to use a different symmetry number we print 
out the resulting rotational entropy values for sn=1,12 :
 --------------------------------------------------------
|  sn= 1 | S(rot)=       0.01668725 Eh     10.47 kcal/mol|
|  sn= 2 | S(rot)=       0.01603279 Eh     10.06 kcal/mol|
|  sn= 3 | S(rot)=       0.01564996 Eh      9.82 kcal/mol|
|  sn= 4 | S(rot)=       0.01537834 Eh      9.65 kcal/mol|
|  sn= 5 | S(rot)=       0.01516765 Eh      9.52 kcal/mol|
|  sn= 6 | S(rot)=       0.01499550 Eh      9.41 kcal/mol|
|  sn= 7 | S(rot)=       0.01484996 Eh      9.32 kcal/mol|
|  sn= 8 | S(rot)=       0.01472388 Eh      9.24 kcal/mol|
|  sn= 9 | S(rot)=       0.01461267 Eh      9.17 kcal/mol|
|  sn=10 | S(rot)=       0.01451319 Eh      9.11 kcal/mol|
|  sn=11 | S(rot)=       0.01442320 Eh      9.05 kcal/mol|
|  sn=12 | S(rot)=       0.01434105 Eh      9.00 kcal/mol|
 --------------------------------------------------------


-------------------
GIBBS FREE ENERGY
-------------------

The Gibbs free energy is G = H - T*S

Total enthalpy                    ...  -1040.70572145 Eh 
Total entropy correction          ...     -0.07345192 Eh    -46.09 kcal/mol
-----------------------------------------------------------------------
Final Gibbs free energy         ...  -1040.77917337 Eh

For completeness - the Gibbs free energy minus the electronic energy
G-E(el)                           ...      0.42977951 Eh    269.69 kcal/mol


Timings for individual modules:

Sum of individual times         ...    36030.584 sec (= 600.510 min)
GTO integral calculation        ...       53.089 sec (=   0.885 min)   0.1 %
SCF iterations                  ...    15938.294 sec (= 265.638 min)  44.2 %
SCF Gradient evaluation         ...     4767.148 sec (=  79.452 min)  13.2 %
Geometry relaxation             ...        5.686 sec (=   0.095 min)   0.0 %
Analytical frequency calculation...    12558.261 sec (= 209.304 min)  34.9 %
CHELPG charge generation        ...     2708.106 sec (=  45.135 min)   7.5 %
                             ****ORCA TERMINATED NORMALLY****
TOTAL RUN TIME: 0 days 10 hours 0 minutes 55 seconds 160 msec
