
Lmod is automatically replacing "intel/2020.1.217" with "gcc/10.3.0".


The following have been reloaded with a version change:
  1) gcccore/.9.3.0 => gcccore/.10.3.0        3) openmpi/4.0.3 => openmpi/4.1.1
  2) libfabric/1.10.1 => libfabric/1.12.1     4) ucx/1.8.0 => ucx/1.9.0

To execute ORCA, run: 
   ${EBROOTORCA}/orca orca.inp > orca.out

                                 *****************
                                 * O   R   C   A *
                                 *****************

                                            #,                                       
                                            ###                                      
                                            ####                                     
                                            #####                                    
                                            ######                                   
                                           ########,                                 
                                     ,,################,,,,,                         
                               ,,#################################,,                 
                          ,,##########################################,,             
                       ,#########################################, ''#####,          
                    ,#############################################,,   '####,        
                  ,##################################################,,,,####,       
                ,###########''''           ''''###############################       
              ,#####''   ,,,,##########,,,,          '''####'''          '####       
            ,##' ,,,,###########################,,,                        '##       
           ' ,,###''''                  '''############,,,                           
         ,,##''                                '''############,,,,        ,,,,,,###''
      ,#''                                            '''#######################'''  
     '                                                          ''''####''''         
             ,#######,   #######,   ,#######,      ##                                
            ,#'     '#,  ##    ##  ,#'     '#,    #''#        ######   ,####,        
            ##       ##  ##   ,#'  ##            #'  '#       #        #'  '#        
            ##       ##  #######   ##           ,######,      #####,   #    #        
            '#,     ,#'  ##    ##  '#,     ,#' ,#      #,         ##   #,  ,#        
             '#######'   ##     ##  '#######'  #'      '#     #####' # '####'        



                  #######################################################
                  #                        -***-                        #
                  #          Department of theory and spectroscopy      #
                  #    Directorship and core code : Frank Neese         #
                  #        Max Planck Institute fuer Kohlenforschung    #
                  #                Kaiser Wilhelm Platz 1               #
                  #                 D-45470 Muelheim/Ruhr               #
                  #                      Germany                        #
                  #                                                     #
                  #                  All rights reserved                #
                  #                        -***-                        #
                  #######################################################


                         Program Version 5.0.4 -  RELEASE  -


 With contributions from (in alphabetic order):
   Daniel Aravena         : Magnetic Suceptibility
   Michael Atanasov       : Ab Initio Ligand Field Theory (pilot matlab implementation)
   Alexander A. Auer      : GIAO ZORA, VPT2 properties, NMR spectrum
   Ute Becker             : Parallelization
   Giovanni Bistoni       : ED, misc. LED, open-shell LED, HFLD
   Martin Brehm           : Molecular dynamics
   Dmytro Bykov           : SCF Hessian
   Vijay G. Chilkuri      : MRCI spin determinant printing, contributions to CSF-ICE
   Dipayan Datta          : RHF DLPNO-CCSD density
   Achintya Kumar Dutta   : EOM-CC, STEOM-CC
   Dmitry Ganyushin       : Spin-Orbit,Spin-Spin,Magnetic field MRCI
   Miquel Garcia          : C-PCM and meta-GGA Hessian, CC/C-PCM, Gaussian charge scheme
   Yang Guo               : DLPNO-NEVPT2, F12-NEVPT2, CIM, IAO-localization
   Andreas Hansen         : Spin unrestricted coupled pair/coupled cluster methods
   Benjamin Helmich-Paris : MC-RPA, TRAH-SCF, COSX integrals
   Lee Huntington         : MR-EOM, pCC
   Robert Izsak           : Overlap fitted RIJCOSX, COSX-SCS-MP3, EOM
   Marcus Kettner         : VPT2
   Christian Kollmar      : KDIIS, OOCD, Brueckner-CCSD(T), CCSD density, CASPT2, CASPT2-K
   Simone Kossmann        : Meta GGA functionals, TD-DFT gradient, OOMP2, MP2 Hessian
   Martin Krupicka        : Initial AUTO-CI
   Lucas Lang             : DCDCAS
   Marvin Lechner         : AUTO-CI (C++ implementation), FIC-MRCC
   Dagmar Lenk            : GEPOL surface, SMD
   Dimitrios Liakos       : Extrapolation schemes; Compound Job, initial MDCI parallelization
   Dimitrios Manganas     : Further ROCIS development; embedding schemes
   Dimitrios Pantazis     : SARC Basis sets
   Anastasios Papadopoulos: AUTO-CI, single reference methods and gradients
   Taras Petrenko         : DFT Hessian,TD-DFT gradient, ASA, ECA, R-Raman, ABS, FL, XAS/XES, NRVS
   Peter Pinski           : DLPNO-MP2, DLPNO-MP2 Gradient
   Christoph Reimann      : Effective Core Potentials
   Marius Retegan         : Local ZFS, SOC
   Christoph Riplinger    : Optimizer, TS searches, QM/MM, DLPNO-CCSD(T), (RO)-DLPNO pert. Triples
   Tobias Risthaus        : Range-separated hybrids, TD-DFT gradient, RPA, STAB
   Michael Roemelt        : Original ROCIS implementation
   Masaaki Saitow         : Open-shell DLPNO-CCSD energy and density
   Barbara Sandhoefer     : DKH picture change effects
   Avijit Sen             : IP-ROCIS
   Kantharuban Sivalingam : CASSCF convergence, NEVPT2, FIC-MRCI
   Bernardo de Souza      : ESD, SOC TD-DFT
   Georgi Stoychev        : AutoAux, RI-MP2 NMR, DLPNO-MP2 response
   Willem Van den Heuvel  : Paramagnetic NMR
   Boris Wezisla          : Elementary symmetry handling
   Frank Wennmohs         : Technical directorship


 We gratefully acknowledge several colleagues who have allowed us to
 interface, adapt or use parts of their codes:
   Stefan Grimme, W. Hujo, H. Kruse, P. Pracht,  : VdW corrections, initial TS optimization,
                  C. Bannwarth, S. Ehlert          DFT functionals, gCP, sTDA/sTD-DF
   Ed Valeev, F. Pavosevic, A. Kumar             : LibInt (2-el integral package), F12 methods
   Garnet Chan, S. Sharma, J. Yang, R. Olivares  : DMRG
   Ulf Ekstrom                                   : XCFun DFT Library
   Mihaly Kallay                                 : mrcc  (arbitrary order and MRCC methods)
   Jiri Pittner, Ondrej Demel                    : Mk-CCSD
   Frank Weinhold                                : gennbo (NPA and NBO analysis)
   Christopher J. Cramer and Donald G. Truhlar   : smd solvation model
   Lars Goerigk                                  : TD-DFT with DH, B97 family of functionals
   V. Asgeirsson, H. Jonsson                     : NEB implementation
   FAccTs GmbH                                   : IRC, NEB, NEB-TS, DLPNO-Multilevel, CI-OPT
                                                   MM, QMMM, 2- and 3-layer-ONIOM, Crystal-QMMM,
                                                   LR-CPCM, SF, NACMEs, symmetry and pop. for TD-DFT,
                                                   nearIR, NL-DFT gradient (VV10), updates on ESD,
                                                   ML-optimized integration grids
   S Lehtola, MJT Oliveira, MAL Marques          : LibXC Library
   Liviu Ungur et al                             : ANISO software


 Your calculation uses the libint2 library for the computation of 2-el integrals
 For citations please refer to: http://libint.valeyev.net

 Your ORCA version has been built with support for libXC version: 5.1.0
 For citations please refer to: https://tddft.org/programs/libxc/

 This ORCA versions uses:
   CBLAS   interface :  Fast vector & matrix operations
   LAPACKE interface :  Fast linear algebra routines
   SCALAPACK package :  Parallel linear algebra routines
   Shared memory     :  Shared parallel matrices
   BLAS/LAPACK       :  OpenBLAS 0.3.15  USE64BITINT DYNAMIC_ARCH NO_AFFINITY Haswell SINGLE_THREADED
        Core in use  :  Haswell
   Copyright (c) 2011-2014, The OpenBLAS Project


Your calculation utilizes the atom-pairwise dispersion correction
with the Becke-Johnson damping scheme (D3BJ)
Cite in your paper:
S.Grimme, S.Ehrlich, L.Goerigk, J Comput Chem, (2011), 32, 1456–1465 
S.Grimme, J.Antony, S.Ehrlich and H.Krieg, J.Chem.Phys., 132, (2010), 154104 
   

================================================================================

----- Orbital basis set information -----
Your calculation utilizes the basis: def2-TZVP
   F. Weigend and R. Ahlrichs, Phys. Chem. Chem. Phys. 7, 3297 (2005).

----- AuxJ basis set information -----
Your calculation utilizes the auxiliary basis: def2/J
   F. Weigend, Phys. Chem. Chem. Phys. 8, 1057 (2006).

================================================================================
                                        WARNINGS
                       Please study these warnings very carefully!
================================================================================


WARNING: Geometry Optimization
  ===> : Switching off AutoStart
         For restart on a previous wavefunction, please use MOREAD

INFO   : the flag for use of the SHARK integral package has been found!

================================================================================
                                       INPUT FILE
================================================================================
NAME = Fentanyl_OProt_1.inp
|  1> ! wB97X-D3BJ TightOpt Freq def2-TZVP def2/J RIJCOSX TightSCF defgrid3 CHELPG
|  2> %maxcore 3400
|  3> 
|  4> %pal nprocs 8 
|  5> end
|  6> 
|  7> %chelpg
|  8> grid 0.1
|  9> rmax 3.0
| 10> end
| 11> 
| 12> *xyz 1 1
| 13> O         3.4592590955     2.2903369469     0.1502839967
| 14> N        -1.9482985425     2.0068227456     0.0327740592
| 15> N         1.9879908084     0.6041071667     0.0006399323
| 16> C         0.8518107902     1.5402441651    -0.0019747492
| 17> C        -0.0174759559     1.3393055465    -1.2418129030
| 18> C         0.0076373270     1.3635385879     1.2599769692
| 19> C        -1.2137221558     2.2928385924    -1.1710745003
| 20> C        -1.1795687603     2.3304097566     1.2026915228
| 21> C        -3.3592157959     2.3293565001     0.0225573510
| 22> C        -4.1346717922     1.1952511393    -0.6769037988
| 23> C         1.6937736108    -0.8020488688    -0.0708610613
| 24> C         3.2195374858     1.0054004902     0.0793566863
| 25> C        -3.5491325576    -0.1262767068    -0.2634651927
| 26> C         4.3471890383     0.0210066497     0.0881155410
| 27> C         1.4887085944    -1.5226924203     1.0971387953
| 28> C         1.6152140219    -1.4241932538    -1.3091515146
| 29> C         5.7291890845     0.6630280793     0.1755303978
| 30> C        -2.8147159509    -0.8908825442    -1.1598565110
| 31> C        -3.6732697535    -0.5739465615     1.0459759979
| 32> C         1.1895851823    -2.8723447581     1.0196219325
| 33> C         1.3172039762    -2.7745426480    -1.3742469594
| 34> C         1.1029452263    -3.4977977408    -0.2126886953
| 35> C        -2.2066074443    -2.0674333214    -0.7570247700
| 36> C        -3.0647566918    -1.7473263747     1.4531610421
| 37> C        -2.3230295439    -2.4948616383     0.5537877227
| 38> H         1.2713713118     2.5500492193    -0.0148274815
| 39> H        -0.4038697418     0.3200194838    -1.2587209787
| 40> H         0.5599675707     1.5290522581    -2.1480493476
| 41> H         0.6078300038     1.5556290870     2.1508757394
| 42> H        -0.3921651660     0.3497553831     1.2971002941
| 43> H        -0.8594979001     3.3402948542    -1.2056891138
| 44> H        -1.8560887358     2.1227754523    -2.0339941828
| 45> H        -1.7935937758     2.1879660372     2.0922090140
| 46> H        -0.8104913964     3.3731575954     1.1984674466
| 47> H        -3.6928393306     2.4004896509     1.0584209756
| 48> H        -3.5695241772     3.2922045624    -0.4656159615
| 49> H        -4.0685643452     1.3043686345    -1.7597779457
| 50> H        -5.1865138206     1.2582155610    -0.3955031435
| 51> H         4.2767459049    -0.5909949519    -0.8156561648
| 52> H         4.1994848357    -0.6625136858     0.9292490812
| 53> H         1.5614306775    -1.0344835335     2.0565125413
| 54> H         1.7817820934    -0.8574264894    -2.2121396537
| 55> H         6.4819420324    -0.1203201503     0.1757762525
| 56> H         5.8551479872     1.2268397399     1.0990540804
| 57> H         5.9329274287     1.3013111728    -0.6833664851
| 58> H        -2.7260094346    -0.5693389877    -2.1881929620
| 59> H        -4.2565761195    -0.0015181194     1.7520431646
| 60> H         1.0250075950    -3.4320470989     1.9265466659
| 61> H         1.2525956632    -3.2587757774    -2.3358822747
| 62> H         0.8684232972    -4.5489200950    -0.2688446071
| 63> H        -1.6439090441    -2.6545913969    -1.4690600636
| 64> H        -3.1730051820    -2.0836876536     2.4737825723
| 65> H        -1.8509640567    -3.4135327425     0.8692767660
| 66> H         4.4120555676     2.4847417529     0.1997575776
| 67> *
| 68> 
| 69> 
| 70>                          ****END OF INPUT****
================================================================================

                       *****************************
                       * Geometry Optimization Run *
                       *****************************

Geometry optimization settings:
Update method            Update   .... BFGS
Choice of coordinates    CoordSys .... Z-matrix Internals
Initial Hessian          InHess   .... Almoef's Model

Convergence Tolerances:
Energy Change            TolE     ....  1.0000e-06 Eh
Max. Gradient            TolMAXG  ....  1.0000e-04 Eh/bohr
RMS Gradient             TolRMSG  ....  3.0000e-05 Eh/bohr
Max. Displacement        TolMAXD  ....  1.0000e-03 bohr
RMS Displacement         TolRMSD  ....  6.0000e-04 bohr
Strict Convergence                ....  False
------------------------------------------------------------------------------
                        ORCA OPTIMIZATION COORDINATE SETUP
------------------------------------------------------------------------------

The optimization will be done in new redundant internal coordinates
Making redundant internal coordinates   ...  (new redundants) done
Evaluating the initial hessian          ...  (Almloef) done
Evaluating the coordinates              ...  done
Calculating the B-matrix                .... done
Calculating the G-matrix                .... done
Diagonalizing the G-matrix              .... done
Small eigenvalue found = 2.251e-03
Small eigenvalue found = 4.387e-03
Small eigenvalue found = 5.174e-03
Small eigenvalue found = 6.880e-03
Small eigenvalue found = 1.689e-02
Small eigenvalue found = 2.335e-02
Small eigenvalue found = 2.920e-02
The first mode is                       ....  149
The number of degrees of freedom        ....  156

    -----------------------------------------------------------------
                    Redundant Internal Coordinates


    -----------------------------------------------------------------
         Definition                    Initial Value    Approx d2E/dq
    -----------------------------------------------------------------
      1. B(C   3,N   2)                  1.4722         0.413799   
      2. B(C   4,C   3)                  1.5275         0.377031   
      3. B(C   5,C   3)                  1.5285         0.375610   
      4. B(C   6,C   4)                  1.5314         0.371637   
      5. B(C   6,N   1)                  1.4390         0.467448   
      6. B(C   7,N   1)                  1.4368         0.471224   
      7. B(C   7,C   5)                  1.5322         0.370593   
      8. B(C   8,N   1)                  1.4473         0.453292   
      9. B(C   9,C   8)                  1.5417         0.357886   
     10. B(C  10,N   2)                  1.4384         0.468469   
     11. B(C  11,N   2)                  1.2977         0.785573   
     12. B(C  11,O   0)                  1.3090         0.753457   
     13. B(C  12,C   9)                  1.5034         0.411917   
     14. B(C  13,C  11)                  1.4969         0.421879   
     15. B(C  14,C  10)                  1.3877         0.630189   
     16. B(C  15,C  10)                  1.3880         0.629359   
     17. B(C  16,C  13)                  1.5264         0.378612   
     18. B(C  17,C  12)                  1.3883         0.628602   
     19. B(C  18,C  12)                  1.3894         0.626157   
     20. B(C  19,C  14)                  1.3846         0.637376   
     21. B(C  20,C  15)                  1.3844         0.637844   
     22. B(C  21,C  20)                  1.3850         0.636381   
     23. B(C  21,C  19)                  1.3847         0.637171   
     24. B(C  22,C  17)                  1.3843         0.637971   
     25. B(C  23,C  18)                  1.3831         0.640885   
     26. B(C  24,C  23)                  1.3849         0.636703   
     27. B(C  24,C  22)                  1.3836         0.639550   
     28. B(H  25,C   3)                  1.0936         0.355404   
     29. B(H  26,C   4)                  1.0902         0.359839   
     30. B(H  27,C   4)                  1.0912         0.358521   
     31. B(H  28,C   5)                  1.0913         0.358448   
     32. B(H  29,C   5)                  1.0904         0.359569   
     33. B(H  30,C   6)                  1.1063         0.339205   
     34. B(H  31,C   6)                  1.0891         0.361263   
     35. B(H  32,C   7)                  1.0902         0.359822   
     36. B(H  33,C   7)                  1.1061         0.339362   
     37. B(H  34,C   8)                  1.0906         0.359326   
     38. B(H  35,C   8)                  1.0998         0.347332   
     39. B(H  36,C   9)                  1.0904         0.359619   
     40. B(H  37,C   9)                  1.0907         0.359238   
     41. B(H  38,C  13)                  1.0938         0.355160   
     42. B(H  39,C  13)                  1.0939         0.355034   
     43. B(H  40,C  14)                  1.0789         0.375082   
     44. B(H  41,C  15)                  1.0791         0.374876   
     45. B(H  42,C  16)                  1.0864         0.364890   
     46. B(H  43,C  16)                  1.0893         0.360984   
     47. B(H  44,C  16)                  1.0893         0.361000   
     48. B(H  45,C  17)                  1.0811         0.372095   
     49. B(H  46,C  18)                  1.0800         0.373542   
     50. B(H  47,C  19)                  1.0784         0.375829   
     51. B(H  48,C  20)                  1.0786         0.375488   
     52. B(H  49,C  21)                  1.0784         0.375735   
     53. B(H  50,C  20)                  2.9651         0.000367   
     54. B(H  50,C  22)                  1.0809         0.372320   
     55. B(H  51,C  23)                  1.0801         0.373495   
     56. B(H  52,C  24)                  1.0800         0.373616   
     57. B(H  53,O   0)                  0.9737         0.494463   
     58. A(C  11,O   0,H  53)          112.2060         0.379474   
     59. A(C   7,N   1,C   8)          118.4978         0.386146   
     60. A(C   6,N   1,C   8)          116.5793         0.385605   
     61. A(C   6,N   1,C   7)          111.3041         0.388221   
     62. A(C   3,N   2,C  11)          122.4059         0.415773   
     63. A(C  10,N   2,C  11)          119.9638         0.425081   
     64. A(C   3,N   2,C  10)          117.6256         0.379691   
     65. A(C   4,C   3,C   5)          109.9146         0.364262   
     66. A(N   2,C   3,H  25)          106.9240         0.327139   
     67. A(N   2,C   3,C   4)          110.9163         0.368046   
     68. A(N   2,C   3,C   5)          110.5643         0.367808   
     69. A(C   5,C   3,H  25)          109.1682         0.323909   
     70. A(C   4,C   3,H  25)          109.2852         0.324110   
     71. A(C   3,C   4,C   6)          108.9740         0.363601   
     72. A(C   3,C   4,H  27)          110.4916         0.324575   
     73. A(C   6,C   4,H  26)          107.8189         0.324003   
     74. A(H  26,C   4,H  27)          109.7097         0.290606   
     75. A(C   6,C   4,H  27)          110.0876         0.323808   
     76. A(C   3,C   4,H  26)          109.7113         0.324771   
     77. A(C   3,C   5,H  29)          109.7604         0.324530   
     78. A(H  28,C   5,H  29)          109.7262         0.290562   
     79. A(C   3,C   5,C   7)          108.9119         0.363191   
     80. A(C   3,C   5,H  28)          110.4822         0.324363   
     81. A(C   7,C   5,H  29)          107.6903         0.323814   
     82. A(C   7,C   5,H  28)          110.2191         0.323648   
     83. A(C   4,C   6,H  31)          109.0804         0.324214   
     84. A(C   4,C   6,H  30)          109.7540         0.320883   
     85. A(N   1,C   6,H  30)          112.1992         0.331230   
     86. A(N   1,C   6,C   4)          108.2789         0.374919   
     87. A(H  30,C   6,H  31)          108.1742         0.288272   
     88. A(N   1,C   6,H  31)          109.3127         0.334709   
     89. A(H  32,C   7,H  33)          108.3130         0.288113   
     90. A(N   1,C   7,H  33)          112.8126         0.331697   
     91. A(C   5,C   7,H  33)          109.6626         0.320760   
     92. A(C   5,C   7,H  32)          108.8718         0.323851   
     93. A(N   1,C   7,H  32)          109.4874         0.334934   
     94. A(N   1,C   7,C   5)          107.6314         0.375258   
     95. A(C   9,C   8,H  35)          110.2701         0.320148   
     96. A(N   1,C   8,H  35)          112.6207         0.330842   
     97. A(C   9,C   8,H  34)          108.9683         0.321931   
     98. A(N   1,C   8,H  34)          107.8209         0.332708   
     99. A(N   1,C   8,C   9)          109.2448         0.370523   
    100. A(H  34,C   8,H  35)          107.8180         0.289099   
    101. A(C   8,C   9,H  37)          108.9999         0.321918   
    102. A(H  36,C   9,H  37)          107.9949         0.290669   
    103. A(C  12,C   9,H  37)          110.8186         0.329450   
    104. A(C   8,C   9,C  12)          109.0240         0.366776   
    105. A(C  12,C   9,H  36)          109.7226         0.329508   
    106. A(C   8,C   9,H  36)          110.2716         0.321974   
    107. A(C  14,C  10,C  15)          120.6485         0.436518   
    108. A(N   2,C  10,C  15)          119.6108         0.411284   
    109. A(N   2,C  10,C  14)          119.7406         0.411380   
    110. A(O   0,C  11,N   2)          118.7269         0.463244   
    111. A(N   2,C  11,C  13)          120.7926         0.419930   
    112. A(O   0,C  11,C  13)          120.4805         0.416818   
    113. A(C  17,C  12,C  18)          118.5750         0.435919   
    114. A(C   9,C  12,C  18)          120.5041         0.404268   
    115. A(C   9,C  12,C  17)          120.8356         0.404546   
    116. A(C  11,C  13,C  16)          113.9415         0.371863   
    117. A(H  38,C  13,H  39)          106.0845         0.289565   
    118. A(C  16,C  13,H  39)          109.9413         0.324278   
    119. A(C  11,C  13,H  39)          108.2828         0.330111   
    120. A(C  16,C  13,H  38)          109.9373         0.324296   
    121. A(C  11,C  13,H  38)          108.3374         0.330130   
    122. A(C  10,C  14,C  19)          119.4081         0.437515   
    123. A(C  19,C  14,H  40)          120.3603         0.357026   
    124. A(C  10,C  14,H  40)          120.2316         0.356339   
    125. A(C  10,C  15,C  20)          119.4288         0.437469   
    126. A(C  20,C  15,H  41)          120.4121         0.357038   
    127. A(C  10,C  15,H  41)          120.1588         0.356226   
    128. A(H  43,C  16,H  44)          110.0938         0.291066   
    129. A(H  42,C  16,H  44)          107.0425         0.291558   
    130. A(C  13,C  16,H  44)          111.7558         0.325167   
    131. A(H  42,C  16,H  43)          107.0309         0.291556   
    132. A(C  13,C  16,H  43)          111.7743         0.325164   
    133. A(C  13,C  16,H  42)          108.9098         0.325740   
    134. A(C  12,C  17,C  22)          120.8349         0.437390   
    135. A(C  22,C  17,H  45)          119.5737         0.356599   
    136. A(C  12,C  17,H  45)          119.5877         0.355704   
    137. A(C  23,C  18,H  46)          119.6572         0.357110   
    138. A(C  12,C  18,H  46)          119.5780         0.355703   
    139. A(C  12,C  18,C  23)          120.7639         0.437442   
    140. A(C  14,C  19,C  21)          120.2419         0.438385   
    141. A(C  21,C  19,H  47)          120.2975         0.357128   
    142. A(C  14,C  19,H  47)          119.4606         0.357147   
    143. A(C  15,C  20,C  21)          120.2144         0.438345   
    144. A(C  21,C  20,H  48)          120.2657         0.356997   
    145. A(C  15,C  20,H  48)          119.5198         0.357137   
    146. A(C  19,C  21,C  20)          120.0551         0.438262   
    147. A(C  20,C  21,H  49)          119.9308         0.357037   
    148. A(C  19,C  21,H  49)          120.0141         0.357113   
    149. A(C  24,C  22,H  50)          120.0037         0.356785   
    150. A(C  17,C  22,H  50)          119.9119         0.356635   
    151. A(C  17,C  22,C  24)          120.0838         0.438754   
    152. A(C  24,C  23,H  51)          119.9515         0.356706   
    153. A(C  18,C  23,H  51)          119.8888         0.357103   
    154. A(C  18,C  23,C  24)          120.1589         0.438762   
    155. A(C  23,C  24,H  52)          120.2363         0.356725   
    156. A(C  22,C  24,H  52)          120.1819         0.356996   
    157. A(C  22,C  24,C  23)          119.5751         0.438596   
    158. D(C   4,C   3,N   2,C  11)    123.7978         0.014604   
    159. D(C   4,C   3,N   2,C  10)    -56.9880         0.014604   
    160. D(H  25,C   3,N   2,C  10)   -176.0574         0.014604   
    161. D(C   5,C   3,N   2,C  11)   -114.0040         0.014604   
    162. D(H  25,C   3,N   2,C  11)      4.7284         0.014604   
    163. D(C   5,C   3,N   2,C  10)     65.2102         0.014604   
    164. D(C   6,C   4,C   3,N   2)    177.7068         0.011339   
    165. D(H  27,C   4,C   3,N   2)    -61.2145         0.011339   
    166. D(H  27,C   4,C   3,C   5)    176.2096         0.011339   
    167. D(C   6,C   4,C   3,H  25)    -64.6544         0.011339   
    168. D(H  26,C   4,C   3,H  25)    177.5114         0.011339   
    169. D(H  26,C   4,C   3,C   5)    -62.7033         0.011339   
    170. D(H  26,C   4,C   3,N   2)     59.8725         0.011339   
    171. D(H  27,C   4,C   3,H  25)     56.4243         0.011339   
    172. D(C   6,C   4,C   3,C   5)     55.1309         0.011339   
    173. D(H  29,C   5,C   3,N   2)    -61.0102         0.011258   
    174. D(H  28,C   5,C   3,H  25)    -57.2364         0.011258   
    175. D(H  28,C   5,C   3,C   4)   -177.0929         0.011258   
    176. D(C   7,C   5,C   3,H  25)     63.9593         0.011258   
    177. D(H  29,C   5,C   3,H  25)   -178.3700         0.011258   
    178. D(C   7,C   5,C   3,C   4)    -55.8972         0.011258   
    179. D(H  29,C   5,C   3,C   4)     61.7735         0.011258   
    180. D(C   7,C   5,C   3,N   2)   -178.6809         0.011258   
    181. D(H  28,C   5,C   3,N   2)     60.1235         0.011258   
    182. D(H  31,C   6,N   1,C   8)    -34.7182         0.018665   
    183. D(H  31,C   6,N   1,C   7)   -174.8699         0.018665   
    184. D(H  30,C   6,N   1,C   8)     85.2800         0.018665   
    185. D(H  30,C   6,N   1,C   7)    -54.8717         0.018665   
    186. D(C   4,C   6,N   1,C   8)   -153.4394         0.018665   
    187. D(N   1,C   6,C   4,C   3)    -58.8591         0.011035   
    188. D(C   4,C   6,N   1,C   7)     66.4089         0.018665   
    189. D(H  31,C   6,C   4,H  26)    -58.7054         0.011035   
    190. D(H  31,C   6,C   4,C   3)   -177.7274         0.011035   
    191. D(H  30,C   6,C   4,H  27)    -57.4051         0.011035   
    192. D(H  30,C   6,C   4,H  26)   -177.0577         0.011035   
    193. D(H  30,C   6,C   4,C   3)     63.9203         0.011035   
    194. D(N   1,C   6,C   4,H  27)    179.8156         0.011035   
    195. D(H  31,C   6,C   4,H  27)     60.9473         0.011035   
    196. D(N   1,C   6,C   4,H  26)     60.1630         0.011035   
    197. D(H  33,C   7,C   5,H  29)    178.1012         0.010977   
    198. D(H  33,C   7,C   5,H  28)     58.4303         0.010977   
    199. D(H  33,C   7,C   5,C   3)    -62.9260         0.010977   
    200. D(H  32,C   7,C   5,H  29)     59.7576         0.010977   
    201. D(H  32,C   7,C   5,H  28)    -59.9133         0.010977   
    202. D(H  32,C   7,C   5,C   3)    178.7304         0.010977   
    203. D(N   1,C   7,C   5,H  29)    -58.8343         0.010977   
    204. D(N   1,C   7,C   5,H  28)   -178.5052         0.010977   
    205. D(N   1,C   7,C   5,C   3)     60.1385         0.010977   
    206. D(H  33,C   7,N   1,C   8)    -85.0552         0.018975   
    207. D(H  33,C   7,N   1,C   6)     54.2490         0.018975   
    208. D(H  32,C   7,N   1,C   8)     35.6373         0.018975   
    209. D(H  32,C   7,N   1,C   6)    174.9414         0.018975   
    210. D(C   5,C   7,N   1,C   8)    153.8330         0.018975   
    211. D(C   5,C   7,N   1,C   6)    -66.8628         0.018975   
    212. D(H  35,C   8,N   1,C   7)     95.8757         0.017532   
    213. D(H  35,C   8,N   1,C   6)    -41.3373         0.017532   
    214. D(H  34,C   8,N   1,C   7)    -22.9504         0.017532   
    215. D(H  34,C   8,N   1,C   6)   -160.1634         0.017532   
    216. D(C   9,C   8,N   1,C   7)   -141.2358         0.017532   
    217. D(C   9,C   8,N   1,C   6)     81.5511         0.017532   
    218. D(C  12,C   9,C   8,H  35)    164.1589         0.010284   
    219. D(C  12,C   9,C   8,H  34)    -77.6858         0.010284   
    220. D(C  12,C   9,C   8,N   1)     39.8798         0.010284   
    221. D(H  37,C   9,C   8,H  35)    -74.7549         0.010284   
    222. D(H  37,C   9,C   8,H  34)     43.4004         0.010284   
    223. D(H  37,C   9,C   8,N   1)    160.9660         0.010284   
    224. D(H  36,C   9,C   8,H  35)     43.6360         0.010284   
    225. D(H  36,C   9,C   8,H  34)    161.7913         0.010284   
    226. D(H  36,C   9,C   8,N   1)    -80.6432         0.010284   
    227. D(C  15,C  10,N   2,C  11)    -89.9740         0.017297   
    228. D(C  15,C  10,N   2,C   3)     90.7918         0.017297   
    229. D(C  14,C  10,N   2,C  11)     90.1539         0.017297   
    230. D(C  14,C  10,N   2,C   3)    -89.0803         0.017297   
    231. D(C  13,C  11,N   2,C  10)      0.3980         0.052382   
    232. D(C  13,C  11,N   2,C   3)    179.5944         0.052382   
    233. D(O   0,C  11,N   2,C  10)   -179.6478         0.052382   
    234. D(O   0,C  11,N   2,C   3)     -0.4515         0.052382   
    235. D(C  13,C  11,O   0,H  53)      0.3398         0.043159   
    236. D(N   2,C  11,O   0,H  53)   -179.6145         0.043159   
    237. D(C  18,C  12,C   9,H  37)    -52.4217         0.012563   
    238. D(C  18,C  12,C   9,H  36)   -171.5930         0.012563   
    239. D(C  18,C  12,C   9,C   8)     67.5474         0.012563   
    240. D(C  17,C  12,C   9,H  37)    130.9837         0.012563   
    241. D(C  17,C  12,C   9,H  36)     11.8124         0.012563   
    242. D(C  17,C  12,C   9,C   8)   -109.0471         0.012563   
    243. D(H  39,C  13,C  11,N   2)    -57.7426         0.013157   
    244. D(H  39,C  13,C  11,O   0)    122.3040         0.013157   
    245. D(H  38,C  13,C  11,N   2)     56.8962         0.013157   
    246. D(H  38,C  13,C  11,O   0)   -123.0572         0.013157   
    247. D(C  16,C  13,C  11,N   2)    179.5944         0.013157   
    248. D(C  16,C  13,C  11,O   0)     -0.3589         0.013157   
    249. D(H  40,C  14,C  10,C  15)    179.3674         0.027537   
    250. D(H  40,C  14,C  10,N   2)     -0.7619         0.027537   
    251. D(C  19,C  14,C  10,C  15)     -0.6660         0.027537   
    252. D(C  19,C  14,C  10,N   2)    179.2047         0.027537   
    253. D(H  41,C  15,C  10,C  14)   -179.6415         0.027460   
    254. D(H  41,C  15,C  10,N   2)      0.4876         0.027460   
    255. D(C  20,C  15,C  10,C  14)      0.5824         0.027460   
    256. D(C  20,C  15,C  10,N   2)   -179.2885         0.027460   
    257. D(H  44,C  16,C  13,H  39)    176.3217         0.011429   
    258. D(H  44,C  16,C  13,C  11)    -61.9278         0.011429   
    259. D(H  43,C  16,C  13,H  39)    -59.7789         0.011429   
    260. D(H  43,C  16,C  13,H  38)   -176.2098         0.011429   
    261. D(H  43,C  16,C  13,C  11)     61.9717         0.011429   
    262. D(H  42,C  16,C  13,H  39)     58.2698         0.011429   
    263. D(H  44,C  16,C  13,H  38)     59.8907         0.011429   
    264. D(H  42,C  16,C  13,H  38)    -58.1611         0.011429   
    265. D(H  42,C  16,C  13,C  11)   -179.9797         0.011429   
    266. D(H  45,C  17,C  12,C  18)    178.6382         0.027389   
    267. D(H  45,C  17,C  12,C   9)     -4.7028         0.027389   
    268. D(C  22,C  17,C  12,C  18)     -0.6547         0.027389   
    269. D(C  22,C  17,C  12,C   9)    176.0044         0.027389   
    270. D(H  46,C  18,C  12,C  17)   -178.8428         0.027163   
    271. D(H  46,C  18,C  12,C   9)      4.4868         0.027163   
    272. D(C  23,C  18,C  12,C  17)      0.8002         0.027163   
    273. D(C  23,C  18,C  12,C   9)   -175.8703         0.027163   
    274. D(H  47,C  19,C  14,H  40)      0.2830         0.028210   
    275. D(H  47,C  19,C  14,C  10)   -179.6835         0.028210   
    276. D(C  21,C  19,C  14,H  40)   -179.7010         0.028210   
    277. D(C  21,C  19,C  14,C  10)      0.3325         0.028210   
    278. D(H  48,C  20,C  15,H  41)      0.0246         0.030712   
    279. D(H  48,C  20,C  15,C  10)    179.8002         0.030712   
    280. D(C  21,C  20,C  15,H  41)   -179.9399         0.030712   
    281. D(C  21,C  20,C  15,C  10)     -0.1644         0.030712   
    282. D(H  49,C  21,C  19,C  14)   -179.9175         0.028191   
    283. D(C  20,C  21,C  19,H  47)   -179.9050         0.028191   
    284. D(C  20,C  21,C  19,C  14)      0.0789         0.028191   
    285. D(H  49,C  21,C  20,H  48)     -0.1316         0.030561   
    286. D(H  49,C  21,C  20,C  15)    179.8327         0.030561   
    287. D(C  19,C  21,C  20,H  48)    179.8720         0.030561   
    288. D(C  19,C  21,C  20,C  15)     -0.1638         0.030561   
    289. D(H  49,C  21,C  19,H  47)      0.0986         0.028191   
    290. D(H  50,C  22,C  17,H  45)      0.2924         0.028266   
    291. D(H  50,C  22,C  17,C  12)    179.5854         0.028266   
    292. D(C  24,C  22,C  17,H  45)   -179.4402         0.028266   
    293. D(C  24,C  22,C  17,C  12)     -0.1472         0.028266   
    294. D(H  51,C  23,C  18,H  46)     -0.1753         0.028543   
    295. D(H  51,C  23,C  18,C  12)   -179.8179         0.028543   
    296. D(C  24,C  23,C  18,H  46)    179.4978         0.028543   
    297. D(C  24,C  23,C  18,C  12)     -0.1448         0.028543   
    298. D(H  52,C  24,C  23,H  51)     -0.0565         0.028147   
    299. D(H  52,C  24,C  23,C  18)   -179.7294         0.028147   
    300. D(C  22,C  24,C  23,H  51)    179.0044         0.028147   
    301. D(C  22,C  24,C  23,C  18)     -0.6686         0.028147   
    302. D(H  52,C  24,C  22,H  50)      0.1418         0.028416   
    303. D(H  52,C  24,C  22,C  17)    179.8742         0.028416   
    304. D(C  23,C  24,C  22,H  50)   -178.9195         0.028416   
    305. D(C  23,C  24,C  22,C  17)      0.8128         0.028416   
    -----------------------------------------------------------------

Number of atoms                         .... 54
Number of degrees of freedom            .... 305

         *************************************************************
         *                GEOMETRY OPTIMIZATION CYCLE   1            *
         *************************************************************
---------------------------------
CARTESIAN COORDINATES (ANGSTROEM)
---------------------------------
  O      3.459259    2.290337    0.150284
  N     -1.948299    2.006823    0.032774
  N      1.987991    0.604107    0.000640
  C      0.851811    1.540244   -0.001975
  C     -0.017476    1.339306   -1.241813
  C      0.007637    1.363539    1.259977
  C     -1.213722    2.292839   -1.171075
  C     -1.179569    2.330410    1.202692
  C     -3.359216    2.329357    0.022557
  C     -4.134672    1.195251   -0.676904
  C      1.693774   -0.802049   -0.070861
  C      3.219537    1.005400    0.079357
  C     -3.549133   -0.126277   -0.263465
  C      4.347189    0.021007    0.088116
  C      1.488709   -1.522692    1.097139
  C      1.615214   -1.424193   -1.309152
  C      5.729189    0.663028    0.175530
  C     -2.814716   -0.890883   -1.159857
  C     -3.673270   -0.573947    1.045976
  C      1.189585   -2.872345    1.019622
  C      1.317204   -2.774543   -1.374247
  C      1.102945   -3.497798   -0.212689
  C     -2.206607   -2.067433   -0.757025
  C     -3.064757   -1.747326    1.453161
  C     -2.323030   -2.494862    0.553788
  H      1.271371    2.550049   -0.014827
  H     -0.403870    0.320019   -1.258721
  H      0.559968    1.529052   -2.148049
  H      0.607830    1.555629    2.150876
  H     -0.392165    0.349755    1.297100
  H     -0.859498    3.340295   -1.205689
  H     -1.856089    2.122775   -2.033994
  H     -1.793594    2.187966    2.092209
  H     -0.810491    3.373158    1.198467
  H     -3.692839    2.400490    1.058421
  H     -3.569524    3.292205   -0.465616
  H     -4.068564    1.304369   -1.759778
  H     -5.186514    1.258216   -0.395503
  H      4.276746   -0.590995   -0.815656
  H      4.199485   -0.662514    0.929249
  H      1.561431   -1.034484    2.056513
  H      1.781782   -0.857426   -2.212140
  H      6.481942   -0.120320    0.175776
  H      5.855148    1.226840    1.099054
  H      5.932927    1.301311   -0.683366
  H     -2.726009   -0.569339   -2.188193
  H     -4.256576   -0.001518    1.752043
  H      1.025008   -3.432047    1.926547
  H      1.252596   -3.258776   -2.335882
  H      0.868423   -4.548920   -0.268845
  H     -1.643909   -2.654591   -1.469060
  H     -3.173005   -2.083688    2.473783
  H     -1.850964   -3.413533    0.869277
  H      4.412056    2.484742    0.199758

----------------------------
CARTESIAN COORDINATES (A.U.)
----------------------------
  NO LB      ZA    FRAG     MASS         X           Y           Z
   0 O     8.0000    0    15.999    6.537052    4.328110    0.283996
   1 N     7.0000    0    14.007   -3.681751    3.792345    0.061934
   2 N     7.0000    0    14.007    3.756758    1.141597    0.001209
   3 C     6.0000    0    12.011    1.609689    2.910640   -0.003732
   4 C     6.0000    0    12.011   -0.033025    2.530921   -2.346686
   5 C     6.0000    0    12.011    0.014432    2.576715    2.381011
   6 C     6.0000    0    12.011   -2.293602    4.332837   -2.213010
   7 C     6.0000    0    12.011   -2.229062    4.403836    2.272758
   8 C     6.0000    0    12.011   -6.347998    4.401846    0.042627
   9 C     6.0000    0    12.011   -7.813397    2.258697   -1.279163
  10 C     6.0000    0    12.011    3.200768   -1.515653   -0.133908
  11 C     6.0000    0    12.011    6.084044    1.899932    0.149962
  12 C     6.0000    0    12.011   -6.706889   -0.238628   -0.497877
  13 C     6.0000    0    12.011    8.214997    0.039697    0.166514
  14 C     6.0000    0    12.011    2.813252   -2.877472    2.073292
  15 C     6.0000    0    12.011    3.052312   -2.691335   -2.473938
  16 C     6.0000    0    12.011   10.826598    1.252941    0.331704
  17 C     6.0000    0    12.011   -5.319042   -1.683524   -2.191811
  18 C     6.0000    0    12.011   -6.941474   -1.084602    1.976608
  19 C     6.0000    0    12.011    2.247990   -5.427945    1.926806
  20 C     6.0000    0    12.011    2.489155   -5.243126   -2.596950
  21 C     6.0000    0    12.011    2.084264   -6.609880   -0.401923
  22 C     6.0000    0    12.011   -4.169884   -3.906883   -1.430569
  23 C     6.0000    0    12.011   -5.791551   -3.301968    2.746076
  24 C     6.0000    0    12.011   -4.389890   -4.714605    1.046507
  25 H     1.0000    0     1.008    2.402544    4.818895   -0.028020
  26 H     1.0000    0     1.008   -0.763203    0.604749   -2.378638
  27 H     1.0000    0     1.008    1.058185    2.889490   -4.059225
  28 H     1.0000    0     1.008    1.148632    2.939713    4.064566
  29 H     1.0000    0     1.008   -0.741085    0.660942    2.451164
  30 H     1.0000    0     1.008   -1.624216    6.312242   -2.278422
  31 H     1.0000    0     1.008   -3.507499    4.011464   -3.843692
  32 H     1.0000    0     1.008   -3.389401    4.134657    3.953702
  33 H     1.0000    0     1.008   -1.531607    6.374344    2.264775
  34 H     1.0000    0     1.008   -6.978455    4.536268    2.000126
  35 H     1.0000    0     1.008   -6.745423    6.221365   -0.879887
  36 H     1.0000    0     1.008   -7.688472    2.464899   -3.325498
  37 H     1.0000    0     1.008   -9.801091    2.377683   -0.747393
  38 H     1.0000    0     1.008    8.081879   -1.116819   -1.541367
  39 H     1.0000    0     1.008    7.935876   -1.251969    1.756026
  40 H     1.0000    0     1.008    2.950676   -1.954891    3.886245
  41 H     1.0000    0     1.008    3.367080   -1.620301   -4.180338
  42 H     1.0000    0     1.008   12.249095   -0.227372    0.332169
  43 H     1.0000    0     1.008   11.064626    2.318391    2.076911
  44 H     1.0000    0     1.008   11.211608    2.459122   -1.291376
  45 H     1.0000    0     1.008   -5.151411   -1.075895   -4.135085
  46 H     1.0000    0     1.008   -8.043763   -0.002869    3.310882
  47 H     1.0000    0     1.008    1.936984   -6.485629    3.640646
  48 H     1.0000    0     1.008    2.367063   -6.158194   -4.414178
  49 H     1.0000    0     1.008    1.641082   -8.596213   -0.508043
  50 H     1.0000    0     1.008   -3.106538   -5.016451   -2.776121
  51 H     1.0000    0     1.008   -5.996111   -3.937599    4.674772
  52 H     1.0000    0     1.008   -3.497815   -6.450642    1.642695
  53 H     1.0000    0     1.008    8.337577    4.695481    0.377487

--------------------------------
INTERNAL COORDINATES (ANGSTROEM)
--------------------------------
 O      0   0   0     0.000000000000     0.00000000     0.00000000
 N      1   0   0     5.416259640752     0.00000000     0.00000000
 N      1   2   0     2.242854117028    45.91472643     0.00000000
 C      3   1   2     1.472163153353    91.62225196     1.97039215
 C      4   3   1     1.527492855305   110.91632502   123.56661744
 C      4   3   1     1.528520800172   110.56430103   245.76484375
 C      2   1   3     1.438978417742    59.87302048   262.66801033
 C      2   1   3     1.436788398953    55.69288204   107.91236498
 C      2   1   3     1.447349266715   164.10194459   181.23264159
 C      9   2   1     1.541678588965   109.24480027   154.55806269
 C      3   1   2     1.438384839889   150.74730946   182.97606809
 C      3   1   2     1.297667090382    30.78446595   182.35170406
 C     10   9   2     1.503403979071   109.02397512    39.87975840
 C     12   3   1     1.496898785692   120.79255514   180.04582879
 C     11   3   1     1.387660785022   119.74056048    89.78506536
 C     11   3   1     1.388019629375   119.61077907   269.65712736
 C     14  12   3     1.526354153187   113.94146963   179.59441815
 C     13  10   9     1.388346943061   120.83564848   250.95286908
 C     13  10   9     1.389407994022   120.50405330    67.54744724
 C     15  11   3     1.384573982355   119.40806469   179.20467703
 C     16  11   3     1.384373826207   119.42877632   180.71150192
 C     20  15  11     1.384661474489   120.24192226     0.33247968
 C     18  13  10     1.384319724156   120.83486238   176.00436041
 C     19  13  10     1.383079170729   120.76389296   184.12967659
 C     23  18  13     1.383646798277   120.08382932   359.85280006
 H      4   3   1     1.093573258406   106.92404582     4.49722328
 H      5   4   3     1.090197284174   109.71133205    59.87253074
 H      5   4   3     1.091196285962   110.49160816   298.78549412
 H      6   4   3     1.091251862712   110.48220464    60.12346452
 H      6   4   3     1.090402018063   109.76041442   298.98979657
 H      7   2   1     1.106271944496   112.19919605   282.91078493
 H      7   2   1     1.089121973503   109.31265853   162.91261108
 H      8   2   1     1.090210209091   109.48736089   198.26505443
 H      8   2   1     1.106146011467   112.81255168    77.57263214
 H      9   2   1     1.090586097847   107.82087101   272.84348281
 H      9   2   1     1.099826890632   112.62074383    31.66964573
 H     10   9   2     1.090363810997   110.27160859   279.35682806
 H     10   9   2     1.090652327697   108.99993848   160.96595814
 H     14  12   3     1.093760253259   108.33744015    56.89621336
 H     14  12   3     1.093856577873   108.28278106   302.25738239
 H     15  11   3     1.078904260366   120.23158390   359.23807507
 H     16  11   3     1.079053783195   120.15876866     0.48759553
 H     17  14  12     1.086403014463   108.90979917   180.02029656
 H     17  14  12     1.089332468129   111.77432414    61.97166620
 H     17  14  12     1.089320189752   111.75578512   298.07217803
 H     18  13  10     1.081080460103   119.58773810   355.29724997
 H     19  13  10     1.080023833919   119.57797626     4.48676152
 H     20  15  11     1.078362167637   119.46062132   180.31648715
 H     21  16  11     1.078609492518   119.51982658   179.80015444
 H     22  20  15     1.078430445211   120.01407074   180.08246350
 H     23  18  13     1.080915516840   119.91188536   179.58536254
 H     24  19  13     1.080057847285   119.88880690   180.18205581
 H     25  23  18     1.079970258081   120.18193539   179.87415200
 H      1   2   3     0.973684744180   171.31313561   187.09092163

---------------------------
INTERNAL COORDINATES (A.U.)
---------------------------
 O      0   0   0     0.000000000000     0.00000000     0.00000000
 N      1   0   0    10.235247391233     0.00000000     0.00000000
 N      1   2   0     4.238380039521    45.91472643     0.00000000
 C      3   1   2     2.781985184287    91.62225196     1.97039215
 C      4   3   1     2.886543168048   110.91632502   123.56661744
 C      4   3   1     2.888485702327   110.56430103   245.76484375
 C      2   1   3     2.719275122156    59.87302048   262.66801033
 C      2   1   3     2.715136586416    55.69288204   107.91236498
 C      2   1   3     2.735093734223   164.10194459   181.23264159
 C      9   2   1     2.913350319674   109.24480027   154.55806269
 C      3   1   2     2.718153422574   150.74730946   182.97606809
 C      3   1   2     2.452235413825    30.78446595   182.35170406
 C     10   9   2     2.841021789092   109.02397512    39.87975840
 C     12   3   1     2.828728755157   120.79255514   180.04582879
 C     11   3   1     2.622298850473   119.74056048    89.78506536
 C     11   3   1     2.622976968025   119.61077907   269.65712736
 C     14  12   3     2.884391332897   113.94146963   179.59441815
 C     13  10   9     2.623595501252   120.83564848   250.95286908
 C     13  10   9     2.625600596983   120.50405330    67.54744724
 C     15  11   3     2.616465638803   119.40806469   179.20467703
 C     16  11   3     2.616087398501   119.42877632   180.71150192
 C     20  15  11     2.616630974975   120.24192226     0.33247968
 C     18  13  10     2.615985160440   120.83486238   176.00436041
 C     19  13  10     2.613640854209   120.76389296   184.12967659
 C     23  18  13     2.614713514820   120.08382932   359.85280006
 H      4   3   1     2.066553965767   106.92404582     4.49722328
 H      5   4   3     2.060174299034   109.71133205    59.87253074
 H      5   4   3     2.062062138820   110.49160816   298.78549412
 H      6   4   3     2.062167163657   110.48220464    60.12346452
 H      6   4   3     2.060561190014   109.76041442   298.98979657
 H      7   2   1     2.090551004737   112.19919605   282.91078493
 H      7   2   1     2.058142256357   109.31265853   162.91261108
 H      8   2   1     2.060198723588   109.48736089   198.26505443
 H      8   2   1     2.090313025803   112.81255168    77.57263214
 H      9   2   1     2.060909050393   107.82087101   272.84348281
 H      9   2   1     2.078371618017   112.62074383    31.66964573
 H     10   9   2     2.060488989123   110.27160859   279.35682806
 H     10   9   2     2.061034206672   108.99993848   160.96595814
 H     14  12   3     2.066907334828   108.33744015    56.89621336
 H     14  12   3     2.067089361969   108.28278106   302.25738239
 H     15  11   3     2.038833576812   120.23158390   359.23807507
 H     16  11   3     2.039116134010   120.15876866     0.48759553
 H     17  14  12     2.053004168401   108.90979917   180.02029656
 H     17  14  12     2.058540033553   111.77432414    61.97166620
 H     17  14  12     2.058516830782   111.75578512   298.07217803
 H     18  13  10     2.042945998328   119.58773810   355.29724997
 H     19  13  10     2.040949264214   119.57797626     4.48676152
 H     20  15  11     2.037809170016   119.46062132   180.31648715
 H     21  16  11     2.038276546306   119.51982658   179.80015444
 H     22  20  15     2.037938195931   120.01407074   180.08246350
 H     23  18  13     2.042634300733   119.91188536   179.58536254
 H     24  19  13     2.041013540161   119.88880690   180.18205581
 H     25  23  18     2.040848020554   120.18193539   179.87415200
 H      1   2   3     1.839997507278   171.31313561   187.09092163

---------------------
BASIS SET INFORMATION
---------------------
There are 4 groups of distinct atoms

 Group   1 Type O   : 11s6p2d1f contracted to 5s3p2d1f pattern {62111/411/11/1}
 Group   2 Type N   : 11s6p2d1f contracted to 5s3p2d1f pattern {62111/411/11/1}
 Group   3 Type C   : 11s6p2d1f contracted to 5s3p2d1f pattern {62111/411/11/1}
 Group   4 Type H   : 5s1p contracted to 3s1p pattern {311/1}

Atom   0O    basis set group =>   1
Atom   1N    basis set group =>   2
Atom   2N    basis set group =>   2
Atom   3C    basis set group =>   3
Atom   4C    basis set group =>   3
Atom   5C    basis set group =>   3
Atom   6C    basis set group =>   3
Atom   7C    basis set group =>   3
Atom   8C    basis set group =>   3
Atom   9C    basis set group =>   3
Atom  10C    basis set group =>   3
Atom  11C    basis set group =>   3
Atom  12C    basis set group =>   3
Atom  13C    basis set group =>   3
Atom  14C    basis set group =>   3
Atom  15C    basis set group =>   3
Atom  16C    basis set group =>   3
Atom  17C    basis set group =>   3
Atom  18C    basis set group =>   3
Atom  19C    basis set group =>   3
Atom  20C    basis set group =>   3
Atom  21C    basis set group =>   3
Atom  22C    basis set group =>   3
Atom  23C    basis set group =>   3
Atom  24C    basis set group =>   3
Atom  25H    basis set group =>   4
Atom  26H    basis set group =>   4
Atom  27H    basis set group =>   4
Atom  28H    basis set group =>   4
Atom  29H    basis set group =>   4
Atom  30H    basis set group =>   4
Atom  31H    basis set group =>   4
Atom  32H    basis set group =>   4
Atom  33H    basis set group =>   4
Atom  34H    basis set group =>   4
Atom  35H    basis set group =>   4
Atom  36H    basis set group =>   4
Atom  37H    basis set group =>   4
Atom  38H    basis set group =>   4
Atom  39H    basis set group =>   4
Atom  40H    basis set group =>   4
Atom  41H    basis set group =>   4
Atom  42H    basis set group =>   4
Atom  43H    basis set group =>   4
Atom  44H    basis set group =>   4
Atom  45H    basis set group =>   4
Atom  46H    basis set group =>   4
Atom  47H    basis set group =>   4
Atom  48H    basis set group =>   4
Atom  49H    basis set group =>   4
Atom  50H    basis set group =>   4
Atom  51H    basis set group =>   4
Atom  52H    basis set group =>   4
Atom  53H    basis set group =>   4
---------------------------------
AUXILIARY/J BASIS SET INFORMATION
---------------------------------
There are 4 groups of distinct atoms

 Group   1 Type O   : 12s5p4d2f1g contracted to 6s4p3d1f1g pattern {711111/2111/211/2/1}
 Group   2 Type N   : 12s5p4d2f1g contracted to 6s4p3d1f1g pattern {711111/2111/211/2/1}
 Group   3 Type C   : 12s5p4d2f1g contracted to 6s4p3d1f1g pattern {711111/2111/211/2/1}
 Group   4 Type H   : 5s2p1d contracted to 3s1p1d pattern {311/2/1}

Atom   0O    basis set group =>   1
Atom   1N    basis set group =>   2
Atom   2N    basis set group =>   2
Atom   3C    basis set group =>   3
Atom   4C    basis set group =>   3
Atom   5C    basis set group =>   3
Atom   6C    basis set group =>   3
Atom   7C    basis set group =>   3
Atom   8C    basis set group =>   3
Atom   9C    basis set group =>   3
Atom  10C    basis set group =>   3
Atom  11C    basis set group =>   3
Atom  12C    basis set group =>   3
Atom  13C    basis set group =>   3
Atom  14C    basis set group =>   3
Atom  15C    basis set group =>   3
Atom  16C    basis set group =>   3
Atom  17C    basis set group =>   3
Atom  18C    basis set group =>   3
Atom  19C    basis set group =>   3
Atom  20C    basis set group =>   3
Atom  21C    basis set group =>   3
Atom  22C    basis set group =>   3
Atom  23C    basis set group =>   3
Atom  24C    basis set group =>   3
Atom  25H    basis set group =>   4
Atom  26H    basis set group =>   4
Atom  27H    basis set group =>   4
Atom  28H    basis set group =>   4
Atom  29H    basis set group =>   4
Atom  30H    basis set group =>   4
Atom  31H    basis set group =>   4
Atom  32H    basis set group =>   4
Atom  33H    basis set group =>   4
Atom  34H    basis set group =>   4
Atom  35H    basis set group =>   4
Atom  36H    basis set group =>   4
Atom  37H    basis set group =>   4
Atom  38H    basis set group =>   4
Atom  39H    basis set group =>   4
Atom  40H    basis set group =>   4
Atom  41H    basis set group =>   4
Atom  42H    basis set group =>   4
Atom  43H    basis set group =>   4
Atom  44H    basis set group =>   4
Atom  45H    basis set group =>   4
Atom  46H    basis set group =>   4
Atom  47H    basis set group =>   4
Atom  48H    basis set group =>   4
Atom  49H    basis set group =>   4
Atom  50H    basis set group =>   4
Atom  51H    basis set group =>   4
Atom  52H    basis set group =>   4
Atom  53H    basis set group =>   4


           ************************************************************
           *        Program running with 8 parallel MPI-processes     *
           *              working on a common directory               *
           ************************************************************
------------------------------------------------------------------------------
                           ORCA GTO INTEGRAL CALCULATION
                           -- RI-GTO INTEGRALS CHOSEN --
------------------------------------------------------------------------------
------------------------------------------------------------------------------
                   ___                                                        
                  /   \      - P O W E R E D   B Y -                         
                 /     \                                                     
                 |  |  |   _    _      __       _____    __    __             
                 |  |  |  | |  | |    /  \     |  _  \  |  |  /  |          
                  \  \/   | |  | |   /    \    | | | |  |  | /  /          
                 / \  \   | |__| |  /  /\  \   | |_| |  |  |/  /          
                |  |  |   |  __  | /  /__\  \  |    /   |      \           
                |  |  |   | |  | | |   __   |  |    \   |  |\   \          
                \     /   | |  | | |  |  |  |  | |\  \  |  | \   \       
                 \___/    |_|  |_| |__|  |__|  |_| \__\ |__|  \__/        
                                                                              
                      - O R C A' S   B I G   F R I E N D -                    
                                      &                                       
                       - I N T E G R A L  F E E D E R -                       
                                                                              
 v1 FN, 2020, v2 2021                                                         
------------------------------------------------------------------------------


Reading SHARK input file Fentanyl_OProt_1.SHARKINP.tmp ... ok
----------------------
SHARK INTEGRAL PACKAGE
----------------------

Number of atoms                             ...     54
Number of basis functions                   ...    949
Number of shells                            ...    391
Maximum angular momentum                    ...      3
Integral batch strategy                     ... SHARK/LIBINT Hybrid
RI-J (if used) integral strategy            ... SPLIT-RIJ (Revised 2003 algorithm where possible)
Printlevel                                  ...      1
Contraction scheme used                     ... SEGMENTED contraction
Coulomb Range Separation                    ... NOT USED
Exchange Range Separation                   ... Long Range
   Mu parameter                             ...  0.300000
   Scaling (regular/separated)              ...  0.167000  0.833000
Finite Nucleus Model                        ... NOT USED
Auxiliary Coulomb fitting basis             ... AVAILABLE
   # of basis functions in Aux-J            ...   1544
   # of shells in Aux-J                     ...    520
   Maximum angular momentum in Aux-J        ...      4
Auxiliary J/K fitting basis                 ... NOT available
Auxiliary Correlation fitting basis         ... NOT available
Auxiliary 'external' fitting basis          ... NOT available
Integral threshold                          ...     2.500000e-11
Primitive cut-off                           ...     2.500000e-12
Primitive pair pre-selection threshold      ...     2.500000e-12

Calculating pre-screening integrals         ... done (  0.1 sec) Dimension = 391
Organizing shell pair data                  ... done (  0.6 sec)
Shell pair information
Total number of shell pairs                 ...     76636
Shell pairs after pre-screening             ...     55816
Total number of primitive shell pairs       ...    228112
Primitive shell pairs kept                  ...    109967
          la=0 lb=0:  15997 shell pairs
          la=1 lb=0:  16479 shell pairs
          la=1 lb=1:   4291 shell pairs
          la=2 lb=0:   7642 shell pairs
          la=2 lb=1:   3948 shell pairs
          la=2 lb=2:    939 shell pairs
          la=3 lb=0:   3524 shell pairs
          la=3 lb=1:   1892 shell pairs
          la=3 lb=2:    881 shell pairs
          la=3 lb=3:    223 shell pairs

Calculating one electron integrals          ... done (  0.1 sec)
Calculating RI/J V-Matrix + Cholesky decomp.... done (  0.3 sec)
Calculating Nuclear repulsion               ... done (  0.0 sec) ENN=   2341.666108200523 Eh

SHARK setup successfully completed in   2.3 seconds

Maximum memory used throughout the entire GTOINT-calculation: 80.6 MB
[1703434110.895165] [gra304:16219:0]          mpool.c:42   UCX  WARN  object 0xbccfe00 was not returned to mpool ucp_requests
[1703434110.895214] [gra304:16219:0]          mpool.c:42   UCX  WARN  object 0xbccffc0 was not returned to mpool ucp_requests
[1703434110.895234] [gra304:16219:0]          mpool.c:42   UCX  WARN  object 0xbcd0180 was not returned to mpool ucp_requests
[1703434110.895251] [gra304:16219:0]          mpool.c:42   UCX  WARN  object 0xbcd0340 was not returned to mpool ucp_requests
[1703434110.895268] [gra304:16219:0]          mpool.c:42   UCX  WARN  object 0xbcd0500 was not returned to mpool ucp_requests
[1703434110.895288] [gra304:16219:0]          mpool.c:42   UCX  WARN  object 0xbcd06c0 was not returned to mpool ucp_requests
[1703434110.895300] [gra304:16219:0]          mpool.c:42   UCX  WARN  object 0xbcd0880 was not returned to mpool ucp_requests
[1703434110.895312] [gra304:16219:0]          mpool.c:42   UCX  WARN  object 0xbcd0a40 was not returned to mpool ucp_requests
[1703434110.895323] [gra304:16219:0]          mpool.c:42   UCX  WARN  object 0xbcd0c00 was not returned to mpool ucp_requests
[1703434110.895334] [gra304:16219:0]          mpool.c:42   UCX  WARN  object 0xbcd0dc0 was not returned to mpool ucp_requests
[1703434110.895345] [gra304:16219:0]          mpool.c:42   UCX  WARN  object 0xbcd0f80 was not returned to mpool ucp_requests
[1703434110.895356] [gra304:16219:0]          mpool.c:42   UCX  WARN  object 0xbcd1140 was not returned to mpool ucp_requests
[1703434110.895692] [gra304:16221:0]          mpool.c:42   UCX  WARN  object 0xad3ee80 was not returned to mpool ucp_requests
[1703434110.895726] [gra304:16221:0]          mpool.c:42   UCX  WARN  object 0xad3f040 was not returned to mpool ucp_requests
[1703434110.895740] [gra304:16221:0]          mpool.c:42   UCX  WARN  object 0xad3f200 was not returned to mpool ucp_requests
[1703434110.895753] [gra304:16221:0]          mpool.c:42   UCX  WARN  object 0xad3f3c0 was not returned to mpool ucp_requests
[1703434110.895765] [gra304:16221:0]          mpool.c:42   UCX  WARN  object 0xad3f580 was not returned to mpool ucp_requests
[1703434110.895784] [gra304:16221:0]          mpool.c:42   UCX  WARN  object 0xad3f740 was not returned to mpool ucp_requests
[1703434110.895797] [gra304:16221:0]          mpool.c:42   UCX  WARN  object 0xad3f900 was not returned to mpool ucp_requests
[1703434110.895809] [gra304:16221:0]          mpool.c:42   UCX  WARN  object 0xad3fac0 was not returned to mpool ucp_requests
[1703434110.895820] [gra304:16221:0]          mpool.c:42   UCX  WARN  object 0xad3fc80 was not returned to mpool ucp_requests
[1703434110.895831] [gra304:16221:0]          mpool.c:42   UCX  WARN  object 0xad3fe40 was not returned to mpool ucp_requests
[1703434110.895842] [gra304:16221:0]          mpool.c:42   UCX  WARN  object 0xad40000 was not returned to mpool ucp_requests
[1703434110.895853] [gra304:16221:0]          mpool.c:42   UCX  WARN  object 0xad401c0 was not returned to mpool ucp_requests
[1703434110.896519] [gra304:16223:0]          mpool.c:42   UCX  WARN  object 0xc2bfb40 was not returned to mpool ucp_requests
[1703434110.896552] [gra304:16223:0]          mpool.c:42   UCX  WARN  object 0xc2bfd00 was not returned to mpool ucp_requests
[1703434110.896572] [gra304:16223:0]          mpool.c:42   UCX  WARN  object 0xc2bfec0 was not returned to mpool ucp_requests
[1703434110.896585] [gra304:16223:0]          mpool.c:42   UCX  WARN  object 0xc2c0080 was not returned to mpool ucp_requests
[1703434110.896603] [gra304:16223:0]          mpool.c:42   UCX  WARN  object 0xc2c0240 was not returned to mpool ucp_requests
[1703434110.896621] [gra304:16223:0]          mpool.c:42   UCX  WARN  object 0xc2c0400 was not returned to mpool ucp_requests
[1703434110.896641] [gra304:16223:0]          mpool.c:42   UCX  WARN  object 0xc2c05c0 was not returned to mpool ucp_requests
[1703434110.896653] [gra304:16223:0]          mpool.c:42   UCX  WARN  object 0xc2c0780 was not returned to mpool ucp_requests
[1703434110.896663] [gra304:16223:0]          mpool.c:42   UCX  WARN  object 0xc2c0940 was not returned to mpool ucp_requests
[1703434110.896672] [gra304:16223:0]          mpool.c:42   UCX  WARN  object 0xc2c0b00 was not returned to mpool ucp_requests
[1703434110.896682] [gra304:16223:0]          mpool.c:42   UCX  WARN  object 0xc2c0cc0 was not returned to mpool ucp_requests
[1703434110.896692] [gra304:16223:0]          mpool.c:42   UCX  WARN  object 0xc2c0e80 was not returned to mpool ucp_requests
[1703434110.897138] [gra304:16218:0]          mpool.c:42   UCX  WARN  object 0xa847200 was not returned to mpool ucp_requests
[1703434110.897178] [gra304:16218:0]          mpool.c:42   UCX  WARN  object 0xa8473c0 was not returned to mpool ucp_requests
[1703434110.897198] [gra304:16218:0]          mpool.c:42   UCX  WARN  object 0xa847580 was not returned to mpool ucp_requests
[1703434110.897212] [gra304:16218:0]          mpool.c:42   UCX  WARN  object 0xa847740 was not returned to mpool ucp_requests
[1703434110.897233] [gra304:16218:0]          mpool.c:42   UCX  WARN  object 0xa847900 was not returned to mpool ucp_requests
[1703434110.897246] [gra304:16218:0]          mpool.c:42   UCX  WARN  object 0xa847ac0 was not returned to mpool ucp_requests
[1703434110.897258] [gra304:16218:0]          mpool.c:42   UCX  WARN  object 0xa847e40 was not returned to mpool ucp_requests
[1703434110.897282] [gra304:16218:0]          mpool.c:42   UCX  WARN  object 0xa848000 was not returned to mpool ucp_requests
[1703434110.897295] [gra304:16218:0]          mpool.c:42   UCX  WARN  object 0xa8481c0 was not returned to mpool ucp_requests
[1703434110.897526] [gra304:16224:0]          mpool.c:42   UCX  WARN  object 0xb7f3d40 was not returned to mpool ucp_requests
[1703434110.897572] [gra304:16224:0]          mpool.c:42   UCX  WARN  object 0xb7f3f00 was not returned to mpool ucp_requests
[1703434110.897599] [gra304:16224:0]          mpool.c:42   UCX  WARN  object 0xb7f40c0 was not returned to mpool ucp_requests
[1703434110.897612] [gra304:16224:0]          mpool.c:42   UCX  WARN  object 0xb7f4280 was not returned to mpool ucp_requests
[1703434110.897624] [gra304:16224:0]          mpool.c:42   UCX  WARN  object 0xb7f4440 was not returned to mpool ucp_requests
[1703434110.897635] [gra304:16224:0]          mpool.c:42   UCX  WARN  object 0xb7f4600 was not returned to mpool ucp_requests
[1703434110.897647] [gra304:16224:0]          mpool.c:42   UCX  WARN  object 0xb7f47c0 was not returned to mpool ucp_requests
[1703434110.897658] [gra304:16224:0]          mpool.c:42   UCX  WARN  object 0xb7f4980 was not returned to mpool ucp_requests
[1703434110.897669] [gra304:16224:0]          mpool.c:42   UCX  WARN  object 0xb7f4b40 was not returned to mpool ucp_requests
[1703434110.897681] [gra304:16224:0]          mpool.c:42   UCX  WARN  object 0xb7f4d00 was not returned to mpool ucp_requests
[1703434110.897692] [gra304:16224:0]          mpool.c:42   UCX  WARN  object 0xb7f4ec0 was not returned to mpool ucp_requests
[1703434110.897703] [gra304:16224:0]          mpool.c:42   UCX  WARN  object 0xb7f5080 was not returned to mpool ucp_requests
[1703434110.898176] [gra304:16220:0]          mpool.c:42   UCX  WARN  object 0xa781b40 was not returned to mpool ucp_requests
[1703434110.898211] [gra304:16220:0]          mpool.c:42   UCX  WARN  object 0xa781d00 was not returned to mpool ucp_requests
[1703434110.898233] [gra304:16220:0]          mpool.c:42   UCX  WARN  object 0xa781ec0 was not returned to mpool ucp_requests
[1703434110.898246] [gra304:16220:0]          mpool.c:42   UCX  WARN  object 0xa782080 was not returned to mpool ucp_requests
[1703434110.898259] [gra304:16220:0]          mpool.c:42   UCX  WARN  object 0xa782240 was not returned to mpool ucp_requests
[1703434110.898278] [gra304:16220:0]          mpool.c:42   UCX  WARN  object 0xa782400 was not returned to mpool ucp_requests
[1703434110.898289] [gra304:16220:0]          mpool.c:42   UCX  WARN  object 0xa7825c0 was not returned to mpool ucp_requests
[1703434110.898300] [gra304:16220:0]          mpool.c:42   UCX  WARN  object 0xa782780 was not returned to mpool ucp_requests
[1703434110.898311] [gra304:16220:0]          mpool.c:42   UCX  WARN  object 0xa782940 was not returned to mpool ucp_requests
[1703434110.898322] [gra304:16220:0]          mpool.c:42   UCX  WARN  object 0xa782b00 was not returned to mpool ucp_requests
[1703434110.898333] [gra304:16220:0]          mpool.c:42   UCX  WARN  object 0xa782cc0 was not returned to mpool ucp_requests
[1703434110.898344] [gra304:16220:0]          mpool.c:42   UCX  WARN  object 0xa782e80 was not returned to mpool ucp_requests
[1703434110.899460] [gra304:16222:0]          mpool.c:42   UCX  WARN  object 0xb12ae80 was not returned to mpool ucp_requests
[1703434110.899608] [gra304:16222:0]          mpool.c:42   UCX  WARN  object 0xb12b040 was not returned to mpool ucp_requests
[1703434110.899727] [gra304:16222:0]          mpool.c:42   UCX  WARN  object 0xb12b200 was not returned to mpool ucp_requests
[1703434110.899846] [gra304:16222:0]          mpool.c:42   UCX  WARN  object 0xb12b3c0 was not returned to mpool ucp_requests
[1703434110.899964] [gra304:16222:0]          mpool.c:42   UCX  WARN  object 0xb12b580 was not returned to mpool ucp_requests
[1703434110.900082] [gra304:16222:0]          mpool.c:42   UCX  WARN  object 0xb12b740 was not returned to mpool ucp_requests
[1703434110.900218] [gra304:16222:0]          mpool.c:42   UCX  WARN  object 0xb12b900 was not returned to mpool ucp_requests
[1703434110.900336] [gra304:16222:0]          mpool.c:42   UCX  WARN  object 0xb12bac0 was not returned to mpool ucp_requests
[1703434110.900453] [gra304:16222:0]          mpool.c:42   UCX  WARN  object 0xb12bc80 was not returned to mpool ucp_requests
[1703434110.900580] [gra304:16222:0]          mpool.c:42   UCX  WARN  object 0xb12be40 was not returned to mpool ucp_requests
[1703434110.900698] [gra304:16222:0]          mpool.c:42   UCX  WARN  object 0xb12c000 was not returned to mpool ucp_requests
[1703434110.900815] [gra304:16222:0]          mpool.c:42   UCX  WARN  object 0xb12c1c0 was not returned to mpool ucp_requests


           ************************************************************
           *        Program running with 8 parallel MPI-processes     *
           *              working on a common directory               *
           ************************************************************
-------------------------------------------------------------------------------
                                 ORCA SCF
-------------------------------------------------------------------------------

------------
SCF SETTINGS
------------
Hamiltonian:
 Density Functional     Method          .... DFT(GTOs)
 Exchange Functional    Exchange        .... WB97X-V
 Correlation Functional Correlation     .... WB97X-V
 Gradients option       PostSCFGGA      .... off
 Hybrid DFT is turned on
   Fraction HF Exchange ScalHFX         ....  0.167000
   Scaling of DF-GGA-X  ScalDFX         ....  0.000000
   Scaling of DF-GGA-C  ScalDFC         ....  1.000000
   Scaling of DF-LDA-C  ScalLDAC        ....  1.000000
   Perturbative correction              ....  0.000000
   Density functional embedding theory  .... OFF
 Long-range corrected/Screened/Range-Separated Hybrid DFT is turned on
   Amount of maximum screened exact exchange              ....  0.833000
   Range separation parameter mu (erf(mu*r12)/r12)        ....  0.300000
 RI-approximation to the Coulomb term is turned on
   Number of AuxJ basis functions       .... 1544
   RIJ-COSX (HFX calculated with COS-X)).... on


General Settings:
 Integral files         IntName         .... Fentanyl_OProt_1
 Hartree-Fock type      HFTyp           .... RHF
 Total Charge           Charge          ....    1
 Multiplicity           Mult            ....    1
 Number of Electrons    NEL             ....  182
 Basis Dimension        Dim             ....  949
 Nuclear Repulsion      ENuc            ....   2341.6661082005 Eh

Convergence Acceleration:
 DIIS                   CNVDIIS         .... on
   Start iteration      DIISMaxIt       ....    12
   Startup error        DIISStart       ....  0.200000
   # of expansion vecs  DIISMaxEq       ....     5
   Bias factor          DIISBfac        ....   1.050
   Max. coefficient     DIISMaxC        ....  10.000
 Trust-Rad. Augm. Hess. CNVTRAH         .... auto
   Auto Start mean grad. ratio tolernc. ....  1.125000
   Auto Start start iteration           ....    20
   Auto Start num. interpolation iter.  ....    10
   Max. Number of Micro iterations      ....    16
   Max. Number of Macro iterations      .... Maxiter - #DIIS iter
   Number of Davidson start vectors     ....     2
   Converg. threshold I  (grad. norm)   ....   1.000e-05
   Converg. threshold II (energy diff.) ....   1.000e-08
   Grad. Scal. Fac. for Micro threshold ....   0.100
   Minimum threshold for Micro iter.    ....   0.010
   NR start threshold (gradient norm)   ....   0.001
   Initial trust radius                 ....   0.400
   Minimum AH scaling param. (alpha)    ....   1.000
   Maximum AH scaling param. (alpha)    .... 1000.000
   Orbital update algorithm             .... Taylor
   White noise on init. David. guess    .... on
   Maximum white noise                  ....   0.010
   Quad. conv. algorithm                .... NR
 SOSCF                  CNVSOSCF        .... on
   Start iteration      SOSCFMaxIt      ....   150
   Startup grad/error   SOSCFStart      ....  0.003300
 Level Shifting         CNVShift        .... on
   Level shift para.    LevelShift      ....    0.2500
   Turn off err/grad.   ShiftErr        ....    0.0010
 Zerner damping         CNVZerner       .... off
 Static damping         CNVDamp         .... on
   Fraction old density DampFac         ....    0.7000
   Max. Damping (<1)    DampMax         ....    0.9800
   Min. Damping (>=0)   DampMin         ....    0.0000
   Turn off err/grad.   DampErr         ....    0.1000
 Fernandez-Rico         CNVRico         .... off

SCF Procedure:
 Maximum # iterations   MaxIter         ....   125
 SCF integral mode      SCFMode         .... Direct
   Integral package                     .... SHARK and LIBINT hybrid scheme
 Reset frequency        DirectResetFreq ....    20
 Integral Threshold     Thresh          ....  2.500e-11 Eh
 Primitive CutOff       TCut            ....  2.500e-12 Eh

Convergence Tolerance:
 Convergence Check Mode ConvCheckMode   .... Total+1el-Energy
 Convergence forced     ConvForced      .... 0
 Energy Change          TolE            ....  1.000e-08 Eh
 1-El. energy change                    ....  1.000e-05 Eh
 Orbital Gradient       TolG            ....  1.000e-05
 Orbital Rotation angle TolX            ....  1.000e-05
 DIIS Error             TolErr          ....  5.000e-07


Diagonalization of the overlap matrix:
Smallest eigenvalue                        ... 5.205e-06
Time for diagonalization                   ...    0.296 sec
Threshold for overlap eigenvalues          ... 1.000e-08
Number of eigenvalues below threshold      ... 0
Time for construction of square roots      ...    0.176 sec
Total time needed                          ...    0.481 sec

Time for model grid setup =    0.527 sec

------------------------------
INITIAL GUESS: MODEL POTENTIAL
------------------------------
Loading Hartree-Fock densities                     ... done
Calculating cut-offs                               ... done
Initializing the effective Hamiltonian             ... done
Setting up the integral package (SHARK)            ... done
Starting the Coulomb interaction                   ... done (   1.4 sec)
Reading the grid                                   ... done
Mapping shells                                     ... done
Starting the XC term evaluation                    ... done (   0.7 sec)
  promolecular density results
     # of electrons  =    182.985960408
     EX              =    -95.416979258
     EC              =     -7.511425254
     EX+EC           =   -102.928404511
Transforming the Hamiltonian                       ... done (   0.1 sec)
Diagonalizing the Hamiltonian                      ... done (   0.3 sec)
Back transforming the eigenvectors                 ... done (   0.1 sec)
Now organizing SCF variables                       ... done
                      ------------------
                      INITIAL GUESS DONE (   3.1 sec)
                      ------------------
-------------------
DFT GRID GENERATION
-------------------

General Integration Accuracy     IntAcc      ... 4.959
Radial Grid Type                 RadialGrid  ... OptM3 with GC (2021)
Angular Grid (max. ang.)         AngularGrid ... 6 (Lebedev-590)
Angular grid pruning method      GridPruning ... 4 (adaptive)
Weight generation scheme         WeightScheme... Becke
Basis function cutoff            BFCut       ... 1.0000e-11
Integration weight cutoff        WCut        ... 1.0000e-14
Angular grids for H and He will be reduced by one unit
Partially contracted basis set               ... off
Rotationally invariant grid construction     ... off

Total number of grid points                  ...   593722
Total number of batches                      ...     9302
Average number of points per batch           ...       63
Average number of grid points per atom       ...    10995
Time for grid setup =    8.578 sec

--------------------
COSX GRID GENERATION
--------------------

GRIDX 1
-------
General Integration Accuracy     IntAcc      ... 4.020
Radial Grid Type                 RadialGrid  ... OptM3 with GC (2021)
Angular Grid (max. ang.)         AngularGrid ... 2 (Lebedev-110)
Angular grid pruning method      GridPruning ... 4 (adaptive)
Weight generation scheme         WeightScheme... Becke
Basis function cutoff            BFCut       ... 1.0000e-11
Integration weight cutoff        WCut        ... 1.0000e-14
Angular grids for H and He will be reduced by one unit
Partially contracted basis set               ... on
Rotationally invariant grid construction     ... off

Total number of grid points                  ...    63919
Total number of batches                      ...     1027
Average number of points per batch           ...       62
Average number of grid points per atom       ...     1184
UseSFitting                                  ... on

GRIDX 2
-------
General Integration Accuracy     IntAcc      ... 4.338
Radial Grid Type                 RadialGrid  ... OptM3 with GC (2021)
Angular Grid (max. ang.)         AngularGrid ... 3 (Lebedev-194)
Angular grid pruning method      GridPruning ... 4 (adaptive)
Weight generation scheme         WeightScheme... Becke
Basis function cutoff            BFCut       ... 1.0000e-11
Integration weight cutoff        WCut        ... 1.0000e-14
Angular grids for H and He will be reduced by one unit
Partially contracted basis set               ... on
Rotationally invariant grid construction     ... off

Total number of grid points                  ...   138603
Total number of batches                      ...     2193
Average number of points per batch           ...       63
Average number of grid points per atom       ...     2567
UseSFitting                                  ... on

GRIDX 3
-------
General Integration Accuracy     IntAcc      ... 4.871
Radial Grid Type                 RadialGrid  ... OptM3 with GC (2021)
Angular Grid (max. ang.)         AngularGrid ... 4 (Lebedev-302)
Angular grid pruning method      GridPruning ... 4 (adaptive)
Weight generation scheme         WeightScheme... Becke
Basis function cutoff            BFCut       ... 1.0000e-11
Integration weight cutoff        WCut        ... 1.0000e-14
Angular grids for H and He will be reduced by one unit
Partially contracted basis set               ... on
[...]
 72:   1043.31   0.003170   16.02  0.000948  ( 0.016576 -0.024686  0.007996)
 73:   1045.02   0.000059    0.30  0.000018  (-0.000291 -0.004058 -0.001052)
 74:   1055.91   0.000901    4.55  0.000266  ( 0.007388 -0.007353 -0.012552)
 75:   1062.69   0.003343   16.90  0.000982  (-0.029868 -0.009406 -0.001122)
 76:   1069.09   0.000366    1.85  0.000107  (-0.002321  0.010003 -0.001137)
 77:   1073.07   0.006922   34.98  0.002013  ( 0.044414 -0.006133 -0.001697)
 78:   1115.02   0.001630    8.24  0.000456  (-0.020887  0.000479 -0.004432)
 79:   1117.68   0.001248    6.31  0.000349  ( 0.009764  0.000588 -0.015901)
 80:   1118.57   0.000564    2.85  0.000157  ( 0.008163  0.000857 -0.009485)
 81:   1120.22   0.000625    3.16  0.000174  (-0.012584  0.001831  0.003501)
 82:   1148.58   0.003109   15.71  0.000845  ( 0.024760 -0.007095  0.013461)
 83:   1156.92   0.000743    3.76  0.000201  ( 0.010856  0.007570  0.005038)
 84:   1176.00   0.000414    2.09  0.000110  (-0.002096 -0.004441 -0.009253)
 85:   1187.82   0.001644    8.31  0.000432  ( 0.001124  0.006173  0.019814)
 86:   1188.97   0.000013    0.07  0.000003  (-0.001486 -0.000343  0.001047)
 87:   1200.72   0.001842    9.31  0.000479  (-0.021578 -0.003031 -0.001960)
 88:   1207.48   0.001929    9.75  0.000498  (-0.019605  0.010617  0.001188)
 89:   1208.21   0.000660    3.33  0.000170  (-0.011784  0.005587  0.000579)
 90:   1212.35   0.000057    0.29  0.000015  (-0.002831  0.002251 -0.001235)
 91:   1233.98   0.009012   45.54  0.002279  ( 0.020131  0.042982  0.005135)
 92:   1242.31   0.000219    1.11  0.000055  (-0.005633  0.004753  0.000834)
 93:   1256.07   0.000392    1.98  0.000097  (-0.000442 -0.009168  0.003609)
 94:   1273.54   0.001890    9.55  0.000463  (-0.008349 -0.019562 -0.003285)
 95:   1286.25   0.011070   55.94  0.002686  (-0.004328  0.051180  0.006907)
 96:   1303.41   0.000405    2.05  0.000097  (-0.002423 -0.001086  0.009479)
 97:   1312.30   0.000700    3.54  0.000166  (-0.002572  0.001041  0.012596)
 98:   1314.68   0.000334    1.69  0.000079  ( 0.003043  0.000999 -0.008313)
 99:   1320.21   0.000876    4.43  0.000207  ( 0.012091  0.007549  0.001984)
100:   1336.49   0.002761   13.95  0.000645  ( 0.011102  0.009871 -0.020591)
101:   1351.92   0.000397    2.00  0.000092  ( 0.009497 -0.000739  0.000906)
102:   1354.13   0.003637   18.38  0.000838  ( 0.025117 -0.012134 -0.007746)
103:   1361.43   0.000379    1.91  0.000087  (-0.002048  0.002280 -0.008801)
104:   1368.04   0.003182   16.08  0.000726  (-0.021561  0.011607  0.011234)
105:   1371.05   0.001545    7.81  0.000352  (-0.006198  0.008252 -0.015654)
106:   1385.22   0.001531    7.74  0.000345  ( 0.007906  0.003468  0.016442)
107:   1388.77   0.002543   12.85  0.000571  ( 0.023650  0.002626  0.002294)
108:   1398.02   0.000824    4.17  0.000184  ( 0.009602  0.006209 -0.007297)
109:   1403.96   0.000558    2.82  0.000124  ( 0.004254  0.009765 -0.003238)
110:   1425.43   0.007829   39.57  0.001714  (-0.036987 -0.016425 -0.008729)
111:   1428.65   0.012117   61.24  0.002647  (-0.005742 -0.050162 -0.009878)
112:   1438.34   0.005248   26.52  0.001139  ( 0.033689 -0.001886 -0.000116)
113:   1447.66   0.009051   45.74  0.001951  (-0.031125 -0.031201 -0.002959)
114:   1452.59   0.010467   52.90  0.002249  ( 0.009414 -0.046105 -0.005858)
115:   1482.75   0.009393   47.47  0.001977  (-0.006203 -0.043060 -0.009178)
116:   1486.72   0.004486   22.67  0.000942  (-0.002969 -0.030536 -0.000635)
117:   1499.11   0.001109    5.60  0.000231  ( 0.012478  0.008307  0.002480)
118:   1502.83   0.001052    5.32  0.000218  ( 0.002167 -0.012115  0.008183)
119:   1506.07   0.001201    6.07  0.000249  ( 0.011422 -0.010794  0.001389)
120:   1510.34   0.000168    0.85  0.000035  (-0.001824 -0.001921  0.005262)
121:   1510.93   0.002858   14.45  0.000590  ( 0.002035  0.002476 -0.024085)
122:   1511.95   0.002165   10.94  0.000447  (-0.006309 -0.008359 -0.018364)
123:   1517.37   0.002977   15.05  0.000612  (-0.002251 -0.008734  0.023042)
124:   1519.31   0.004984   25.19  0.001024  ( 0.017749 -0.026370 -0.003638)
125:   1525.73   0.003001   15.17  0.000614  (-0.014645  0.019842 -0.002388)
126:   1553.15   0.005294   26.75  0.001064  ( 0.002416  0.032130  0.005054)
127:   1555.57   0.001990   10.06  0.000399  ( 0.003883 -0.019209  0.003887)
128:   1672.22   0.000160    0.81  0.000030  (-0.002784 -0.000042  0.004699)
129:   1680.23   0.000827    4.18  0.000154  ( 0.006166  0.003991 -0.009983)
130:   1682.89   0.003595   18.17  0.000667  (-0.019397 -0.014021 -0.009688)
131:   1694.82   0.001366    6.90  0.000251  ( 0.000359  0.015345 -0.003977)
132:   1735.56   0.076729  387.76  0.013796  (-0.110724 -0.033309 -0.020666)
133:   2943.43   0.007336   37.07  0.000778  ( 0.009123  0.021410  0.015367)
134:   2948.27   0.022507  113.74  0.002382  (-0.014518 -0.042933  0.018117)
135:   2990.69   0.019506   98.58  0.002035  (-0.020117  0.040092 -0.004831)
136:   3059.75   0.001332    6.73  0.000136  (-0.002454 -0.011289 -0.001537)
137:   3077.55   0.003294   16.65  0.000334  ( 0.011101 -0.001354  0.014455)
138:   3081.31   0.002745   13.87  0.000278  (-0.007099  0.003101  0.014765)
139:   3081.82   0.005234   26.45  0.000530  (-0.018578  0.012408 -0.005562)
140:   3099.13   0.001555    7.86  0.000157  (-0.012272 -0.000414 -0.002402)
141:   3102.44   0.000735    3.71  0.000074  (-0.002422  0.002736 -0.007781)
142:   3122.01   0.000658    3.33  0.000066  ( 0.006186  0.003688  0.003732)
143:   3122.29   0.001159    5.86  0.000116  ( 0.002374  0.001485 -0.010393)
144:   3123.34   0.000268    1.35  0.000027  ( 0.000144  0.000946  0.005083)
145:   3126.37   0.006535   33.03  0.000652  ( 0.011695 -0.001243 -0.022672)
146:   3138.51   0.002207   11.15  0.000219  (-0.007961 -0.011217 -0.005497)
147:   3142.85   0.000185    0.94  0.000018  ( 0.000345  0.000065 -0.004273)
148:   3146.26   0.002317   11.71  0.000230  ( 0.005736 -0.000421  0.014025)
149:   3150.53   0.002953   14.92  0.000292  ( 0.008493  0.014373 -0.003711)
150:   3167.09   0.000160    0.81  0.000016  ( 0.001774 -0.003546 -0.000254)
151:   3180.34   0.001263    6.38  0.000124  ( 0.000850 -0.007913  0.007784)
152:   3184.72   0.000870    4.40  0.000085  ( 0.004080 -0.006336 -0.005337)
153:   3195.87   0.001141    5.77  0.000111  ( 0.002745 -0.008318  0.005893)
154:   3206.72   0.004418   22.33  0.000430  ( 0.009986 -0.005955 -0.017169)
155:   3208.70   0.000228    1.15  0.000022  (-0.000534 -0.004511 -0.001237)
156:   3215.57   0.000070    0.35  0.000007  ( 0.000030  0.002576  0.000335)
157:   3218.70   0.001751    8.85  0.000170  (-0.004166  0.011330 -0.004899)
158:   3223.07   0.000461    2.33  0.000045  (-0.001694 -0.006264  0.001579)
159:   3230.79   0.000223    1.13  0.000022  (-0.001174  0.002436  0.003767)
160:   3238.16   0.000050    0.25  0.000005  ( 0.001563  0.001339 -0.000755)
161:   3785.27   0.057607  291.12  0.004749  ( 0.063022  0.024341  0.013601)

* The epsilon (eps) is given for a Dirac delta lineshape.
** The dipole moment derivative (T) already includes vibrational overlap.

The first frequency considered to be a vibration is 6
The total number of vibrations considered is 156


--------------------------
THERMOCHEMISTRY AT 298.15K
--------------------------

Temperature         ... 298.15 K
Pressure            ... 1.00 atm
Total Mass          ... 337.49 AMU

Throughout the following assumptions are being made:
  (1) The electronic state is orbitally nondegenerate
  (2) There are no thermally accessible electronically excited states
  (3) Hindered rotations indicated by low frequency modes are not
      treated as such but are treated as vibrations and this may
      cause some error
  (4) All equations used are the standard statistical mechanics
      equations for an ideal gas
  (5) All vibrations are strictly harmonic

freq.       9.49  E(vib)   ...       0.58 
freq.      19.80  E(vib)   ...       0.56 
freq.      24.69  E(vib)   ...       0.56 
freq.      37.45  E(vib)   ...       0.54 
freq.      47.20  E(vib)   ...       0.53 
freq.      61.08  E(vib)   ...       0.51 
freq.      68.03  E(vib)   ...       0.50 
freq.      81.09  E(vib)   ...       0.48 
freq.      98.73  E(vib)   ...       0.46 
freq.     107.08  E(vib)   ...       0.45 
freq.     115.31  E(vib)   ...       0.44 
freq.     147.02  E(vib)   ...       0.41 
freq.     184.94  E(vib)   ...       0.37 
freq.     230.69  E(vib)   ...       0.32 
freq.     239.06  E(vib)   ...       0.32 
freq.     256.10  E(vib)   ...       0.30 
freq.     260.00  E(vib)   ...       0.30 
freq.     271.36  E(vib)   ...       0.29 
freq.     289.43  E(vib)   ...       0.27 
freq.     317.96  E(vib)   ...       0.25 
freq.     335.29  E(vib)   ...       0.24 
freq.     363.81  E(vib)   ...       0.22 
freq.     380.00  E(vib)   ...       0.21 
freq.     409.72  E(vib)   ...       0.19 
freq.     420.15  E(vib)   ...       0.18 
freq.     424.12  E(vib)   ...       0.18 
freq.     437.82  E(vib)   ...       0.17 
freq.     463.02  E(vib)   ...       0.16 
freq.     472.53  E(vib)   ...       0.15 
freq.     492.43  E(vib)   ...       0.14 
freq.     499.47  E(vib)   ...       0.14 
freq.     510.41  E(vib)   ...       0.14 
freq.     539.49  E(vib)   ...       0.12 
freq.     555.08  E(vib)   ...       0.12 
freq.     611.64  E(vib)   ...       0.10 
freq.     622.34  E(vib)   ...       0.09 
freq.     628.15  E(vib)   ...       0.09 
freq.     638.87  E(vib)   ...       0.09 
freq.     651.94  E(vib)   ...       0.08 
freq.     677.30  E(vib)   ...       0.08 
freq.     723.85  E(vib)   ...       0.06 
freq.     728.25  E(vib)   ...       0.06 
freq.     757.01  E(vib)   ...       0.06 
freq.     770.05  E(vib)   ...       0.05 
freq.     787.71  E(vib)   ...       0.05 
freq.     794.11  E(vib)   ...       0.05 
freq.     809.52  E(vib)   ...       0.05 
freq.     812.16  E(vib)   ...       0.05 
freq.     844.86  E(vib)   ...       0.04 
freq.     859.66  E(vib)   ...       0.04 
freq.     876.72  E(vib)   ...       0.04 
freq.     878.49  E(vib)   ...       0.04 
freq.     915.09  E(vib)   ...       0.03 
freq.     932.89  E(vib)   ...       0.03 
freq.     960.76  E(vib)   ...       0.03 
freq.     967.16  E(vib)   ...       0.03 
freq.     973.73  E(vib)   ...       0.03 
freq.     980.74  E(vib)   ...       0.02 
freq.    1003.37  E(vib)   ...       0.02 
freq.    1009.03  E(vib)   ...       0.02 
freq.    1013.30  E(vib)   ...       0.02 
freq.    1016.37  E(vib)   ...       0.02 
freq.    1019.78  E(vib)   ...       0.02 
freq.    1028.26  E(vib)   ...       0.02 
freq.    1033.48  E(vib)   ...       0.02 
freq.    1036.62  E(vib)   ...       0.02 
freq.    1043.31  E(vib)   ...       0.02 
freq.    1045.02  E(vib)   ...       0.02 
freq.    1055.91  E(vib)   ...       0.02 
freq.    1062.69  E(vib)   ...       0.02 
freq.    1069.09  E(vib)   ...       0.02 
freq.    1073.07  E(vib)   ...       0.02 
freq.    1115.02  E(vib)   ...       0.01 
freq.    1117.68  E(vib)   ...       0.01 
freq.    1118.57  E(vib)   ...       0.01 
freq.    1120.22  E(vib)   ...       0.01 
freq.    1148.58  E(vib)   ...       0.01 
freq.    1156.92  E(vib)   ...       0.01 
freq.    1176.00  E(vib)   ...       0.01 
freq.    1187.82  E(vib)   ...       0.01 
freq.    1188.97  E(vib)   ...       0.01 
freq.    1200.72  E(vib)   ...       0.01 
freq.    1207.48  E(vib)   ...       0.01 
freq.    1208.21  E(vib)   ...       0.01 
freq.    1212.35  E(vib)   ...       0.01 
freq.    1233.98  E(vib)   ...       0.01 
freq.    1242.31  E(vib)   ...       0.01 
freq.    1256.07  E(vib)   ...       0.01 
freq.    1273.54  E(vib)   ...       0.01 
freq.    1286.25  E(vib)   ...       0.01 
freq.    1303.41  E(vib)   ...       0.01 
freq.    1312.30  E(vib)   ...       0.01 
freq.    1314.68  E(vib)   ...       0.01 
freq.    1320.21  E(vib)   ...       0.01 
freq.    1336.49  E(vib)   ...       0.01 
freq.    1351.92  E(vib)   ...       0.01 
freq.    1354.13  E(vib)   ...       0.01 
freq.    1361.43  E(vib)   ...       0.01 
freq.    1368.04  E(vib)   ...       0.01 
freq.    1371.05  E(vib)   ...       0.01 
freq.    1385.22  E(vib)   ...       0.00 
freq.    1388.77  E(vib)   ...       0.00 
freq.    1398.02  E(vib)   ...       0.00 
freq.    1403.96  E(vib)   ...       0.00 
freq.    1425.43  E(vib)   ...       0.00 
freq.    1428.65  E(vib)   ...       0.00 
freq.    1438.34  E(vib)   ...       0.00 
freq.    1447.66  E(vib)   ...       0.00 
freq.    1452.59  E(vib)   ...       0.00 
freq.    1482.75  E(vib)   ...       0.00 
freq.    1486.72  E(vib)   ...       0.00 
freq.    1499.11  E(vib)   ...       0.00 
freq.    1502.83  E(vib)   ...       0.00 
freq.    1506.07  E(vib)   ...       0.00 
freq.    1510.34  E(vib)   ...       0.00 
freq.    1510.93  E(vib)   ...       0.00 
freq.    1511.95  E(vib)   ...       0.00 
freq.    1517.37  E(vib)   ...       0.00 
freq.    1519.31  E(vib)   ...       0.00 
freq.    1525.73  E(vib)   ...       0.00 
freq.    1553.15  E(vib)   ...       0.00 
freq.    1555.57  E(vib)   ...       0.00 
freq.    1672.22  E(vib)   ...       0.00 
freq.    1680.23  E(vib)   ...       0.00 
freq.    1682.89  E(vib)   ...       0.00 
freq.    1694.82  E(vib)   ...       0.00 
freq.    1735.56  E(vib)   ...       0.00 
freq.    2943.43  E(vib)   ...       0.00 
freq.    2948.27  E(vib)   ...       0.00 
freq.    2990.69  E(vib)   ...       0.00 
freq.    3059.75  E(vib)   ...       0.00 
freq.    3077.55  E(vib)   ...       0.00 
freq.    3081.31  E(vib)   ...       0.00 
freq.    3081.82  E(vib)   ...       0.00 
freq.    3099.13  E(vib)   ...       0.00 
freq.    3102.44  E(vib)   ...       0.00 
freq.    3122.01  E(vib)   ...       0.00 
freq.    3122.29  E(vib)   ...       0.00 
freq.    3123.34  E(vib)   ...       0.00 
freq.    3126.37  E(vib)   ...       0.00 
freq.    3138.51  E(vib)   ...       0.00 
freq.    3142.85  E(vib)   ...       0.00 
freq.    3146.26  E(vib)   ...       0.00 
freq.    3150.53  E(vib)   ...       0.00 
freq.    3167.09  E(vib)   ...       0.00 
freq.    3180.34  E(vib)   ...       0.00 
freq.    3184.72  E(vib)   ...       0.00 
freq.    3195.87  E(vib)   ...       0.00 
freq.    3206.72  E(vib)   ...       0.00 
freq.    3208.70  E(vib)   ...       0.00 
freq.    3215.57  E(vib)   ...       0.00 
freq.    3218.70  E(vib)   ...       0.00 
freq.    3223.07  E(vib)   ...       0.00 
freq.    3230.79  E(vib)   ...       0.00 
freq.    3238.16  E(vib)   ...       0.00 
freq.    3785.27  E(vib)   ...       0.00 

------------
INNER ENERGY
------------

The inner energy is: U= E(el) + E(ZPE) + E(vib) + E(rot) + E(trans)
    E(el)   - is the total energy from the electronic structure calculation
              = E(kin-el) + E(nuc-el) + E(el-el) + E(nuc-nuc)
    E(ZPE)  - the the zero temperature vibrational energy from the frequency calculation
    E(vib)  - the the finite temperature correction to E(ZPE) due to population
              of excited vibrational states
    E(rot)  - is the rotational thermal energy
    E(trans)- is the translational thermal energy

Summary of contributions to the inner energy U:
Electronic energy                ...  -1041.20943699 Eh
Zero point energy                ...      0.47876662 Eh     300.43 kcal/mol
Thermal vibrational correction   ...      0.02025281 Eh      12.71 kcal/mol
Thermal rotational correction    ...      0.00141627 Eh       0.89 kcal/mol
Thermal translational correction ...      0.00141627 Eh       0.89 kcal/mol
-----------------------------------------------------------------------
Total thermal energy                  -1040.70758501 Eh


Summary of corrections to the electronic energy:
(perhaps to be used in another calculation)
Total thermal correction                  0.02308535 Eh      14.49 kcal/mol
Non-thermal (ZPE) correction              0.47876662 Eh     300.43 kcal/mol
-----------------------------------------------------------------------
Total correction                          0.50185198 Eh     314.92 kcal/mol


--------
ENTHALPY
--------

The enthalpy is H = U + kB*T
                kB is Boltzmann's constant
Total free energy                 ...  -1040.70758501 Eh 
Thermal Enthalpy correction       ...      0.00094421 Eh       0.59 kcal/mol
-----------------------------------------------------------------------
Total Enthalpy                    ...  -1040.70664080 Eh


Note: Only C1 symmetry has been detected, increase convergence thresholds 
      if your molecule has a higher symmetry. Symmetry factor of 1.0 is   
      used for the rotational entropy correction. 
 

Note: Rotational entropy computed according to Herzberg 
Infrared and Raman Spectra, Chapter V,1, Van Nostrand Reinhold, 1945 
Point Group:  C1, Symmetry Number:   1  
Rotational constants in cm-1:     0.011190     0.005555     0.004293 

Vibrational entropy computed according to the QRRHO of S. Grimme
Chem.Eur.J. 2012 18 9955


-------
ENTROPY
-------

The entropy contributions are T*S = T*(S(el)+S(vib)+S(rot)+S(trans))
     S(el)   - electronic entropy
     S(vib)  - vibrational entropy
     S(rot)  - rotational entropy
     S(trans)- translational entropy
The entropies will be listed as multiplied by the temperature to get
units of energy

Electronic entropy                ...      0.00000000 Eh      0.00 kcal/mol
Vibrational entropy               ...      0.03648073 Eh     22.89 kcal/mol
Rotational entropy                ...      0.01665655 Eh     10.45 kcal/mol
Translational entropy             ...      0.02059393 Eh     12.92 kcal/mol
-----------------------------------------------------------------------
Final entropy term                ...      0.07373122 Eh     46.27 kcal/mol

In case the symmetry of your molecule has not been determined correctly
or in case you have a reason to use a different symmetry number we print 
out the resulting rotational entropy values for sn=1,12 :
 --------------------------------------------------------
|  sn= 1 | S(rot)=       0.01665655 Eh     10.45 kcal/mol|
|  sn= 2 | S(rot)=       0.01600210 Eh     10.04 kcal/mol|
|  sn= 3 | S(rot)=       0.01561927 Eh      9.80 kcal/mol|
|  sn= 4 | S(rot)=       0.01534764 Eh      9.63 kcal/mol|
|  sn= 5 | S(rot)=       0.01513695 Eh      9.50 kcal/mol|
|  sn= 6 | S(rot)=       0.01496481 Eh      9.39 kcal/mol|
|  sn= 7 | S(rot)=       0.01481926 Eh      9.30 kcal/mol|
|  sn= 8 | S(rot)=       0.01469319 Eh      9.22 kcal/mol|
|  sn= 9 | S(rot)=       0.01458198 Eh      9.15 kcal/mol|
|  sn=10 | S(rot)=       0.01448250 Eh      9.09 kcal/mol|
|  sn=11 | S(rot)=       0.01439251 Eh      9.03 kcal/mol|
|  sn=12 | S(rot)=       0.01431035 Eh      8.98 kcal/mol|
 --------------------------------------------------------


-------------------
GIBBS FREE ENERGY
-------------------

The Gibbs free energy is G = H - T*S

Total enthalpy                    ...  -1040.70664080 Eh 
Total entropy correction          ...     -0.07373122 Eh    -46.27 kcal/mol
-----------------------------------------------------------------------
Final Gibbs free energy         ...  -1040.78037202 Eh

For completeness - the Gibbs free energy minus the electronic energy
G-E(el)                           ...      0.42906497 Eh    269.24 kcal/mol


Timings for individual modules:

Sum of individual times         ...    53626.936 sec (= 893.782 min)
GTO integral calculation        ...       93.823 sec (=   1.564 min)   0.2 %
SCF iterations                  ...    27231.501 sec (= 453.858 min)  50.8 %
SCF Gradient evaluation         ...     8791.764 sec (= 146.529 min)  16.4 %
Geometry relaxation             ...        9.668 sec (=   0.161 min)   0.0 %
Analytical frequency calculation...    14796.892 sec (= 246.615 min)  27.6 %
CHELPG charge generation        ...     2703.287 sec (=  45.055 min)   5.0 %
                             ****ORCA TERMINATED NORMALLY****
TOTAL RUN TIME: 0 days 14 hours 54 minutes 29 seconds 695 msec
