
Lmod is automatically replacing "intel/2020.1.217" with "gcc/10.3.0".


The following have been reloaded with a version change:
  1) gcccore/.9.3.0 => gcccore/.10.3.0        3) openmpi/4.0.3 => openmpi/4.1.1
  2) libfabric/1.10.1 => libfabric/1.12.1     4) ucx/1.8.0 => ucx/1.9.0

To execute ORCA, run: 
   ${EBROOTORCA}/orca orca.inp > orca.out
cp: cannot stat '/project/6006388/cieritan/Fentanyl_analogs/Despropionyl_ortho-Methylfentanyl/exoN-Prot/DFT/*.hess': No such file or directory
cp: cannot stat '/project/6006388/cieritan/Fentanyl_analogs/Despropionyl_ortho-Methylfentanyl/exoN-Prot/DFT/*.gbw': No such file or directory

                                 *****************
                                 * O   R   C   A *
                                 *****************

                                            #,                                       
                                            ###                                      
                                            ####                                     
                                            #####                                    
                                            ######                                   
                                           ########,                                 
                                     ,,################,,,,,                         
                               ,,#################################,,                 
                          ,,##########################################,,             
                       ,#########################################, ''#####,          
                    ,#############################################,,   '####,        
                  ,##################################################,,,,####,       
                ,###########''''           ''''###############################       
              ,#####''   ,,,,##########,,,,          '''####'''          '####       
            ,##' ,,,,###########################,,,                        '##       
           ' ,,###''''                  '''############,,,                           
         ,,##''                                '''############,,,,        ,,,,,,###''
      ,#''                                            '''#######################'''  
     '                                                          ''''####''''         
             ,#######,   #######,   ,#######,      ##                                
            ,#'     '#,  ##    ##  ,#'     '#,    #''#        ######   ,####,        
            ##       ##  ##   ,#'  ##            #'  '#       #        #'  '#        
            ##       ##  #######   ##           ,######,      #####,   #    #        
            '#,     ,#'  ##    ##  '#,     ,#' ,#      #,         ##   #,  ,#        
             '#######'   ##     ##  '#######'  #'      '#     #####' # '####'        



                  #######################################################
                  #                        -***-                        #
                  #          Department of theory and spectroscopy      #
                  #    Directorship and core code : Frank Neese         #
                  #        Max Planck Institute fuer Kohlenforschung    #
                  #                Kaiser Wilhelm Platz 1               #
                  #                 D-45470 Muelheim/Ruhr               #
                  #                      Germany                        #
                  #                                                     #
                  #                  All rights reserved                #
                  #                        -***-                        #
                  #######################################################


                         Program Version 5.0.4 -  RELEASE  -


 With contributions from (in alphabetic order):
   Daniel Aravena         : Magnetic Suceptibility
   Michael Atanasov       : Ab Initio Ligand Field Theory (pilot matlab implementation)
   Alexander A. Auer      : GIAO ZORA, VPT2 properties, NMR spectrum
   Ute Becker             : Parallelization
   Giovanni Bistoni       : ED, misc. LED, open-shell LED, HFLD
   Martin Brehm           : Molecular dynamics
   Dmytro Bykov           : SCF Hessian
   Vijay G. Chilkuri      : MRCI spin determinant printing, contributions to CSF-ICE
   Dipayan Datta          : RHF DLPNO-CCSD density
   Achintya Kumar Dutta   : EOM-CC, STEOM-CC
   Dmitry Ganyushin       : Spin-Orbit,Spin-Spin,Magnetic field MRCI
   Miquel Garcia          : C-PCM and meta-GGA Hessian, CC/C-PCM, Gaussian charge scheme
   Yang Guo               : DLPNO-NEVPT2, F12-NEVPT2, CIM, IAO-localization
   Andreas Hansen         : Spin unrestricted coupled pair/coupled cluster methods
   Benjamin Helmich-Paris : MC-RPA, TRAH-SCF, COSX integrals
   Lee Huntington         : MR-EOM, pCC
   Robert Izsak           : Overlap fitted RIJCOSX, COSX-SCS-MP3, EOM
   Marcus Kettner         : VPT2
   Christian Kollmar      : KDIIS, OOCD, Brueckner-CCSD(T), CCSD density, CASPT2, CASPT2-K
   Simone Kossmann        : Meta GGA functionals, TD-DFT gradient, OOMP2, MP2 Hessian
   Martin Krupicka        : Initial AUTO-CI
   Lucas Lang             : DCDCAS
   Marvin Lechner         : AUTO-CI (C++ implementation), FIC-MRCC
   Dagmar Lenk            : GEPOL surface, SMD
   Dimitrios Liakos       : Extrapolation schemes; Compound Job, initial MDCI parallelization
   Dimitrios Manganas     : Further ROCIS development; embedding schemes
   Dimitrios Pantazis     : SARC Basis sets
   Anastasios Papadopoulos: AUTO-CI, single reference methods and gradients
   Taras Petrenko         : DFT Hessian,TD-DFT gradient, ASA, ECA, R-Raman, ABS, FL, XAS/XES, NRVS
   Peter Pinski           : DLPNO-MP2, DLPNO-MP2 Gradient
   Christoph Reimann      : Effective Core Potentials
   Marius Retegan         : Local ZFS, SOC
   Christoph Riplinger    : Optimizer, TS searches, QM/MM, DLPNO-CCSD(T), (RO)-DLPNO pert. Triples
   Tobias Risthaus        : Range-separated hybrids, TD-DFT gradient, RPA, STAB
   Michael Roemelt        : Original ROCIS implementation
   Masaaki Saitow         : Open-shell DLPNO-CCSD energy and density
   Barbara Sandhoefer     : DKH picture change effects
   Avijit Sen             : IP-ROCIS
   Kantharuban Sivalingam : CASSCF convergence, NEVPT2, FIC-MRCI
   Bernardo de Souza      : ESD, SOC TD-DFT
   Georgi Stoychev        : AutoAux, RI-MP2 NMR, DLPNO-MP2 response
   Willem Van den Heuvel  : Paramagnetic NMR
   Boris Wezisla          : Elementary symmetry handling
   Frank Wennmohs         : Technical directorship


 We gratefully acknowledge several colleagues who have allowed us to
 interface, adapt or use parts of their codes:
   Stefan Grimme, W. Hujo, H. Kruse, P. Pracht,  : VdW corrections, initial TS optimization,
                  C. Bannwarth, S. Ehlert          DFT functionals, gCP, sTDA/sTD-DF
   Ed Valeev, F. Pavosevic, A. Kumar             : LibInt (2-el integral package), F12 methods
   Garnet Chan, S. Sharma, J. Yang, R. Olivares  : DMRG
   Ulf Ekstrom                                   : XCFun DFT Library
   Mihaly Kallay                                 : mrcc  (arbitrary order and MRCC methods)
   Jiri Pittner, Ondrej Demel                    : Mk-CCSD
   Frank Weinhold                                : gennbo (NPA and NBO analysis)
   Christopher J. Cramer and Donald G. Truhlar   : smd solvation model
   Lars Goerigk                                  : TD-DFT with DH, B97 family of functionals
   V. Asgeirsson, H. Jonsson                     : NEB implementation
   FAccTs GmbH                                   : IRC, NEB, NEB-TS, DLPNO-Multilevel, CI-OPT
                                                   MM, QMMM, 2- and 3-layer-ONIOM, Crystal-QMMM,
                                                   LR-CPCM, SF, NACMEs, symmetry and pop. for TD-DFT,
                                                   nearIR, NL-DFT gradient (VV10), updates on ESD,
                                                   ML-optimized integration grids
   S Lehtola, MJT Oliveira, MAL Marques          : LibXC Library
   Liviu Ungur et al                             : ANISO software


 Your calculation uses the libint2 library for the computation of 2-el integrals
 For citations please refer to: http://libint.valeyev.net

 Your ORCA version has been built with support for libXC version: 5.1.0
 For citations please refer to: https://tddft.org/programs/libxc/

 This ORCA versions uses:
   CBLAS   interface :  Fast vector & matrix operations
   LAPACKE interface :  Fast linear algebra routines
   SCALAPACK package :  Parallel linear algebra routines
   Shared memory     :  Shared parallel matrices
   BLAS/LAPACK       :  OpenBLAS 0.3.15  USE64BITINT DYNAMIC_ARCH NO_AFFINITY SkylakeX SINGLE_THREADED
        Core in use  :  SkylakeX
   Copyright (c) 2011-2014, The OpenBLAS Project


Your calculation utilizes the atom-pairwise dispersion correction
with the Becke-Johnson damping scheme (D3BJ)
Cite in your paper:
S.Grimme, S.Ehrlich, L.Goerigk, J Comput Chem, (2011), 32, 1456–1465 
S.Grimme, J.Antony, S.Ehrlich and H.Krieg, J.Chem.Phys., 132, (2010), 154104 
   

================================================================================

----- Orbital basis set information -----
Your calculation utilizes the basis: def2-TZVP
   F. Weigend and R. Ahlrichs, Phys. Chem. Chem. Phys. 7, 3297 (2005).

----- AuxJ basis set information -----
Your calculation utilizes the auxiliary basis: def2/J
   F. Weigend, Phys. Chem. Chem. Phys. 8, 1057 (2006).

================================================================================
                                        WARNINGS
                       Please study these warnings very carefully!
================================================================================


WARNING: Geometry Optimization
  ===> : Switching off AutoStart
         For restart on a previous wavefunction, please use MOREAD

INFO   : the flag for use of the SHARK integral package has been found!

================================================================================
                                       INPUT FILE
================================================================================
NAME = desprop_oMe-Fentanyl_exoNProt_1.inp
|  1> ! wB97X-D3BJ TightOpt Freq def2-TZVP def2/J RIJCOSX TightSCF defgrid3 CHELPG
|  2> %maxcore 3400
|  3> 
|  4> %pal nprocs 8 
|  5> end
|  6> 
|  7> %chelpg
|  8> grid 0.1
|  9> rmax 3.0
| 10> end
| 11> 
| 12> *xyz 1 1
| 13> N          -2.16558500       0.29267600       0.72108900
| 14> N           0.04504000       0.73082300      -0.74417700
| 15> C          -0.84705800       1.95928700      -0.77120600
| 16> C          -2.18850500       1.55263300      -1.37736700
| 17> C          -1.03969100       2.47469400       0.65140500
| 18> C          -3.03732000       0.78308100      -0.34509800
| 19> C          -1.72363300       1.41353200       1.54609500
| 20> C          -2.68573400      -0.84176900       1.47428400
| 21> C          -2.78001800      -2.10579200       0.60335400
| 22> C           1.40579400       0.94888700      -0.25282100
| 23> C          -1.56651900      -2.26240100      -0.28247900
| 24> C           2.31254100       1.60142300      -1.06610400
| 25> C           1.74126800       0.50384200       1.01494300
| 26> C          -0.30566500      -2.49296000       0.27113100
| 27> C          -1.66479300      -2.11779500      -1.66434000
| 28> C           3.59726300       1.81380200      -0.57934200
| 29> C           3.02475400       0.71759400       1.50728700
| 30> C           3.94400200       1.37932400       0.69077900
| 31> C           0.82699600      -2.55136100      -0.53000800
| 32> C          -0.53379300      -2.18039000      -2.47448300
| 33> C           0.71889400      -2.38646500      -1.90790700
| 34> H          -0.33684100       2.69914300      -1.38823900
| 35> H          -2.02296700       0.94628600      -2.27280800
| 36> H          -2.70409800       2.45740600      -1.70335000
| 37> H          -1.65854100       3.37077800       0.57385100
| 38> H          -0.08709300       2.78836200       1.08021700
| 39> H          -3.82542100       1.42769100       0.07064600
| 40> H          -3.53380500      -0.05708800      -0.82555800
| 41> H          -1.01998500       1.03342900       2.28999100
| 42> H          -2.56249300       1.86343600       2.09639700
| 43> H          -1.98720900      -1.02220600       2.29613200
| 44> H          -3.66378600      -0.62321300       1.92705000
| 45> H          -3.68110300      -2.08220200      -0.01290000
| 46> H          -2.88530500      -2.96844400       1.26622200
| 47> H           2.03493100       1.93431000      -2.06082200
| 48> H          -0.21058400      -2.63448700       1.34393700
| 49> H          -2.63957600      -1.96808700      -2.11829400
| 50> H           4.32928200       2.31847300      -1.19867800
| 51> H           4.95067300       1.55021100       1.05747300
| 52> H           1.79711900      -2.73355400      -0.08135300
| 53> H          -0.63554400      -2.08713400      -3.55064700
| 54> H           1.60100800      -2.44628800      -2.53538800
| 55> H          -0.50135800       0.07139000      -0.14368300
| 56> H           0.07491200       0.29643900      -1.66874400
| 57> H           3.30019739       0.38371111       2.48583345
| 58> C           0.70230106      -0.24810145       1.86742687
| 59> H           0.36068272       0.38836756       2.65679631
| 60> H          -0.12674261      -0.53013134       1.25257264
| 61> H           1.15108378      -1.12499460       2.28522165
| 62> *
| 63> 
| 64> 
| 65>                          ****END OF INPUT****
================================================================================

                       *****************************
                       * Geometry Optimization Run *
                       *****************************

Geometry optimization settings:
Update method            Update   .... BFGS
Choice of coordinates    CoordSys .... Z-matrix Internals
Initial Hessian          InHess   .... Almoef's Model

Convergence Tolerances:
Energy Change            TolE     ....  1.0000e-06 Eh
Max. Gradient            TolMAXG  ....  1.0000e-04 Eh/bohr
RMS Gradient             TolRMSG  ....  3.0000e-05 Eh/bohr
Max. Displacement        TolMAXD  ....  1.0000e-03 bohr
RMS Displacement         TolRMSD  ....  6.0000e-04 bohr
Strict Convergence                ....  False
------------------------------------------------------------------------------
                        ORCA OPTIMIZATION COORDINATE SETUP
------------------------------------------------------------------------------

The optimization will be done in new redundant internal coordinates
Making redundant internal coordinates   ...  (new redundants) done
Evaluating the initial hessian          ...  (Almloef) done
Evaluating the coordinates              ...  done
Calculating the B-matrix                .... done
Calculating the G-matrix                .... done
Diagonalizing the G-matrix              .... done
Small eigenvalue found = 3.061e-03
Small eigenvalue found = 3.718e-03
Small eigenvalue found = 7.641e-03
Small eigenvalue found = 1.464e-02
Small eigenvalue found = 2.182e-02
The first mode is                       ....  143
The number of degrees of freedom        ....  141

    -----------------------------------------------------------------
                    Redundant Internal Coordinates


    -----------------------------------------------------------------
         Definition                    Initial Value    Approx d2E/dq
    -----------------------------------------------------------------
      1. B(C   2,N   1)                  1.5185         0.349092   
      2. B(C   3,C   2)                  1.5272         0.377465   
      3. B(C   4,C   2)                  1.5253         0.380065   
      4. B(C   5,C   3)                  1.5422         0.357246   
      5. B(C   5,N   0)                  1.4619         0.429686   
      6. B(C   6,C   4)                  1.5474         0.350499   
      7. B(C   6,N   0)                  1.4602         0.432341   
      8. B(C   7,N   0)                  1.4577         0.436416   
      9. B(C   8,C   7)                  1.5379         0.362877   
     10. B(C   9,N   1)                  1.4631         0.427823   
     11. B(C  10,C   8)                  1.5106         0.401222   
     12. B(C  11,C   9)                  1.3818         0.643860   
     13. B(C  12,C   9)                  1.3849         0.636709   
     14. B(C  13,C  10)                  1.3962         0.610711   
     15. B(C  14,C  10)                  1.3929         0.618226   
     16. B(C  15,C  11)                  1.3902         0.624423   
     17. B(C  16,C  12)                  1.3912         0.622055   
     18. B(C  17,C  16)                  1.3963         0.610554   
     19. B(C  17,C  15)                  1.3864         0.633029   
     20. B(C  18,C  13)                  1.3886         0.628063   
     21. B(C  19,C  14)                  1.3926         0.618795   
     22. B(C  20,C  19)                  1.3902         0.624301   
     23. B(C  20,C  18)                  1.3919         0.620371   
     24. B(H  21,C   2)                  1.0902         0.359895   
     25. B(H  22,C   3)                  1.0940         0.354824   
     26. B(H  23,C   3)                  1.0912         0.358517   
     27. B(H  24,C   4)                  1.0918         0.357769   
     28. B(H  25,C   4)                  1.0907         0.359124   
     29. B(H  26,C   5)                  1.0998         0.347420   
     30. B(H  27,C   5)                  1.0878         0.363075   
     31. B(H  28,C   6)                  1.0922         0.357154   
     32. B(H  29,C   6)                  1.0995         0.347731   
     33. B(H  30,C   7)                  1.0936         0.355388   
     34. B(H  31,C   7)                  1.0997         0.347489   
     35. B(H  32,C   8)                  1.0919         0.357575   
     36. B(H  33,C   8)                  1.0930         0.356154   
     37. B(H  34,C  11)                  1.0851         0.366701   
     38. B(H  35,C  13)                  1.0863         0.365068   
     39. B(H  36,C  14)                  1.0857         0.365868   
     40. B(H  37,C  15)                  1.0836         0.368709   
     41. B(H  38,C  17)                  1.0849         0.366882   
     42. B(H  39,C  18)                  1.0843         0.367771   
     43. B(H  40,C  19)                  1.0850         0.366804   
     44. B(H  41,C  20)                  1.0842         0.367888   
     45. B(H  42,N   1)                  1.0459         0.379185   
     46. B(H  43,H  40)                  3.1189         0.000040   
     47. B(H  43,N   1)                  1.0220         0.414105   
     48. B(H  44,C  16)                  1.0700         0.387554   
     49. B(C  45,C  12)                  1.5400         0.360100   
     50. B(H  46,C  45)                  1.0700         0.387554   
     51. B(H  47,H  35)                  2.1080         0.001638   
     52. B(H  47,C  45)                  1.0700         0.387554   
     53. B(H  48,C  45)                  1.0700         0.387554   
     54. A(C   5,N   0,C   6)          109.5745         0.376903   
     55. A(C   6,N   0,C   7)          114.4215         0.377918   
     56. A(C   5,N   0,C   7)          115.1590         0.377515   
     57. A(H  42,N   1,H  43)          105.4676         0.294891   
     58. A(C   2,N   1,H  42)          102.3200         0.318822   
     59. A(C   9,N   1,H  43)          109.8765         0.334494   
     60. A(C   2,N   1,C   9)          115.5825         0.363029   
     61. A(C   9,N   1,H  42)          112.7690         0.329648   
     62. A(C   2,N   1,H  43)          110.1784         0.323450   
     63. A(N   1,C   2,C   3)          107.9203         0.357580   
     64. A(C   3,C   2,C   4)          110.4405         0.365070   
     65. A(C   3,C   2,H  21)          111.5406         0.324841   
     66. A(C   4,C   2,H  21)          110.9576         0.325208   
     67. A(N   1,C   2,C   4)          109.3274         0.357998   
     68. A(N   1,C   2,H  21)          106.5093         0.318800   
     69. A(C   5,C   3,H  23)          110.7108         0.321718   
     70. A(H  22,C   3,H  23)          106.6504         0.289966   
     71. A(C   2,C   3,C   5)          110.5276         0.361228   
     72. A(C   2,C   3,H  22)          109.8490         0.324085   
     73. A(C   2,C   3,H  23)          108.2296         0.324636   
     74. A(C   5,C   3,H  22)          110.7677         0.321173   
     75. A(C   2,C   4,H  24)          106.4198         0.324891   
     76. A(H  24,C   4,H  25)          106.6749         0.290419   
     77. A(C   6,C   4,H  25)          110.8503         0.320805   
     78. A(C   2,C   4,H  25)          110.7043         0.325093   
     79. A(C   6,C   4,H  24)          110.6955         0.320607   
     80. A(C   2,C   4,C   6)          111.3070         0.360477   
     81. A(H  26,C   5,H  27)          107.0147         0.289581   
     82. A(N   0,C   5,C   3)          109.1088         0.367023   
     83. A(N   0,C   5,H  27)          109.5848         0.330342   
     84. A(C   3,C   5,H  27)          109.9372         0.322385   
     85. A(C   3,C   5,H  26)          110.7923         0.320068   
     86. A(N   0,C   5,H  26)          110.3794         0.327946   
     87. A(C   4,C   6,H  29)          110.2427         0.319119   
     88. A(H  28,C   6,H  29)          107.0393         0.288877   
     89. A(N   0,C   6,H  29)          111.4659         0.328328   
     90. A(C   4,C   6,H  28)          110.3471         0.320516   
     91. A(N   0,C   6,H  28)          108.2192         0.329781   
     92. A(N   0,C   6,C   4)          109.4817         0.366212   
     93. A(C   8,C   7,H  31)          109.9976         0.320898   
     94. A(C   8,C   7,H  30)          109.2165         0.322081   
     95. A(N   0,C   7,H  30)          106.7860         0.330022   
     96. A(N   0,C   7,C   8)          111.6488         0.368992   
     97. A(N   0,C   7,H  31)          112.0507         0.328799   
     98. A(H  30,C   7,H  31)          106.9458         0.288621   
     99. A(H  32,C   8,H  33)          106.2503         0.290016   
    100. A(C   7,C   8,H  33)          108.1287         0.322194   
    101. A(C  10,C   8,H  32)          109.5250         0.327772   
    102. A(C   7,C   8,H  32)          110.6371         0.322404   
    103. A(C   7,C   8,C  10)          111.5960         0.365994   
    104. A(C  10,C   8,H  33)          110.5611         0.327557   
    105. A(N   1,C   9,C  12)          119.0021         0.405562   
    106. A(N   1,C   9,C  11)          118.8831         0.406363   
    107. A(C  11,C   9,C  12)          122.1131         0.439129   
    108. A(C  13,C  10,C  14)          118.3094         0.432666   
    109. A(C   8,C  10,C  14)          120.9536         0.401494   
    110. A(C   8,C  10,C  13)          120.6678         0.400630   
    111. A(C   9,C  11,H  34)          121.1010         0.356271   
    112. A(C   9,C  11,C  15)          118.1959         0.437588   
    113. A(C  15,C  11,H  34)          120.7018         0.354423   
    114. A(C   9,C  12,C  45)          120.0158         0.395978   
    115. A(C   9,C  12,C  16)          119.8736         0.436409   
    116. A(C  16,C  12,C  45)          120.1017         0.394365   
    117. A(C  10,C  13,C  18)          120.9841         0.433896   
    118. A(C  18,C  13,H  35)          119.5327         0.354504   
    119. A(C  10,C  13,H  35)          119.4823         0.352826   
    120. A(C  10,C  14,C  19)          121.0088         0.433690   
    121. A(C  19,C  14,H  36)          119.4812         0.353743   
    122. A(C  10,C  14,H  36)          119.5042         0.353688   
    123. A(C  11,C  15,C  17)          120.2664         0.436252   
    124. A(C  17,C  15,H  37)          120.0410         0.355576   
    125. A(C  11,C  15,H  37)          119.6924         0.354751   
    126. A(C  12,C  16,C  17)          118.2454         0.433127   
    127. A(C  17,C  16,H  44)          120.8773         0.356404   
    128. A(C  12,C  16,H  44)          120.8773         0.357535   
    129. A(C  15,C  17,C  16)          121.3042         0.434492   
    130. A(C  16,C  17,H  38)          119.2008         0.353107   
    131. A(C  15,C  17,H  38)          119.4939         0.355276   
    132. A(C  13,C  18,C  20)          120.1853         0.435124   
    133. A(C  20,C  18,H  39)          119.9345         0.354207   
    134. A(C  13,C  18,H  39)          119.8785         0.354948   
    135. A(C  14,C  19,C  20)          120.0907         0.434454   
    136. A(C  20,C  19,H  40)          120.0979         0.354428   
    137. A(C  14,C  19,H  40)          119.8007         0.353896   
    138. A(C  18,C  20,C  19)          119.4048         0.434653   
    139. A(C  19,C  20,H  41)          120.3609         0.354605   
    140. A(C  18,C  20,H  41)          120.2121         0.354226   
    141. A(H  47,C  45,H  48)          109.4712         0.297665   
    142. A(H  46,C  45,H  48)          109.4712         0.297665   
    143. A(C  12,C  45,H  48)          109.4712         0.326284   
    144. A(H  46,C  45,H  47)          109.4713         0.297665   
    145. A(C  12,C  45,H  47)          109.4712         0.326284   
    146. A(C  12,C  45,H  46)          109.4712         0.326284   
    147. D(H  21,C   2,N   1,H  43)    -68.1249         0.011237   
    148. D(H  21,C   2,N   1,H  42)   -179.9079         0.011237   
    149. D(C   4,C   2,N   1,H  43)    171.9219         0.011237   
    150. D(C   3,C   2,N   1,H  43)     51.7641         0.011237   
    151. D(C   3,C   2,N   1,H  42)    -60.0189         0.011237   
    152. D(C   4,C   2,N   1,C   9)    -62.8007         0.011237   
    153. D(C   4,C   2,N   1,H  42)     60.1390         0.011237   
    154. D(H  21,C   2,N   1,C   9)     57.1524         0.011237   
    155. D(C   3,C   2,N   1,C   9)    177.0415         0.011237   
    156. D(H  22,C   3,C   2,N   1)    -45.5080         0.011364   
    157. D(H  22,C   3,C   2,C   4)   -164.9631         0.011364   
    158. D(H  23,C   3,C   2,N   1)   -161.5876         0.011364   
    159. D(H  23,C   3,C   2,H  21)    -44.9251         0.011364   
    160. D(C   5,C   3,C   2,N   1)     77.0193         0.011364   
    161. D(H  23,C   3,C   2,C   4)     78.9573         0.011364   
    162. D(C   5,C   3,C   2,C   4)    -42.4358         0.011364   
    163. D(C   5,C   3,C   2,H  21)   -166.3182         0.011364   
    164. D(H  22,C   3,C   2,H  21)     71.1545         0.011364   
    165. D(H  24,C   4,C   2,H  21)     61.0894         0.011512   
    166. D(H  25,C   4,C   2,C   3)   -178.6705         0.011512   
    167. D(H  25,C   4,C   2,N   1)     62.7289         0.011512   
    168. D(H  24,C   4,C   2,C   3)    -63.1285         0.011512   
    169. D(H  24,C   4,C   2,N   1)    178.2710         0.011512   
    170. D(H  25,C   4,C   2,H  21)    -54.4526         0.011512   
    171. D(C   6,C   4,C   2,N   1)    -61.0389         0.011512   
    172. D(C   6,C   4,C   2,C   3)     57.5616         0.011512   
    173. D(C   6,C   4,C   2,H  21)   -178.2205         0.011512   
    174. D(H  26,C   5,N   0,C   7)     80.3023         0.015741   
    175. D(H  26,C   5,N   0,C   6)    -50.3762         0.015741   
    176. D(C   3,C   5,N   0,C   6)     71.5935         0.015741   
    177. D(C   3,C   5,N   0,C   7)   -157.7281         0.015741   
    178. D(H  27,C   5,C   3,H  23)    101.2947         0.010250   
    179. D(H  27,C   5,C   3,H  22)    -16.8039         0.010250   
    180. D(H  27,C   5,C   3,C   2)   -138.7925         0.010250   
    181. D(H  26,C   5,C   3,H  22)   -134.8828         0.010250   
    182. D(H  26,C   5,C   3,H  23)    -16.7842         0.010250   
    183. D(H  26,C   5,C   3,C   2)    103.1285         0.010250   
    184. D(N   0,C   5,C   3,H  23)   -138.5043         0.010250   
    185. D(N   0,C   5,C   3,H  22)    103.3972         0.010250   
    186. D(N   0,C   5,C   3,C   2)    -18.5915         0.010250   
    187. D(H  27,C   5,N   0,C   7)    -37.3105         0.015741   
    188. D(H  27,C   5,N   0,C   6)   -167.9890         0.015741   
    189. D(H  29,C   6,C   4,H  25)    105.1215         0.009896   
    190. D(H  29,C   6,C   4,H  24)    -13.0500         0.009896   
    191. D(H  28,C   6,C   4,H  25)    -12.9037         0.009896   
    192. D(H  28,C   6,C   4,H  24)   -131.0752         0.009896   
    193. D(H  28,C   6,C   4,C   2)    110.7811         0.009896   
    194. D(N   0,C   6,C   4,H  25)   -131.9097         0.009896   
    195. D(N   0,C   6,C   4,H  24)    109.9187         0.009896   
    196. D(N   0,C   6,C   4,C   2)     -8.2249         0.009896   
    197. D(H  29,C   6,N   0,C   7)    -64.5824         0.015936   
    198. D(H  29,C   6,N   0,C   5)     66.4896         0.015936   
    199. D(H  28,C   6,N   0,C   7)     52.8639         0.015936   
    200. D(H  29,C   6,C   4,C   2)   -131.1936         0.009896   
    201. D(H  28,C   6,N   0,C   5)   -176.0641         0.015936   
    202. D(C   4,C   6,N   0,C   7)    173.1774         0.015936   
    203. D(C   4,C   6,N   0,C   5)    -55.7506         0.015936   
    204. D(H  31,C   7,N   0,C   5)    -57.0464         0.016239   
    205. D(H  30,C   7,N   0,C   6)    -45.5307         0.016239   
    206. D(H  30,C   7,N   0,C   5)   -173.8319         0.016239   
    207. D(C   8,C   7,N   0,C   6)   -164.8454         0.016239   
    208. D(H  31,C   7,N   0,C   6)     71.2548         0.016239   
    209. D(C   8,C   7,N   0,C   5)     66.8535         0.016239   
    210. D(H  33,C   8,C   7,H  31)    -71.3955         0.010553   
    211. D(H  33,C   8,C   7,N   0)    163.5553         0.010553   
    212. D(H  32,C   8,C   7,H  31)     44.5775         0.010553   
    213. D(H  32,C   8,C   7,H  30)    161.6629         0.010553   
    214. D(H  32,C   8,C   7,N   0)    -80.4717         0.010553   
    215. D(C  10,C   8,C   7,H  31)    166.7980         0.010553   
    216. D(H  33,C   8,C   7,H  30)     45.6899         0.010553   
    217. D(C  10,C   8,C   7,H  30)    -76.1166         0.010553   
    218. D(C  10,C   8,C   7,N   0)     41.7488         0.010553   
    219. D(C  12,C   9,N   1,H  43)   -129.1855         0.015605   
    220. D(C  12,C   9,N   1,H  42)    -11.8437         0.015605   
    221. D(C  12,C   9,N   1,C   2)    105.3820         0.015605   
    222. D(C  11,C   9,N   1,H  43)     51.2731         0.015605   
    223. D(C  11,C   9,N   1,H  42)    168.6149         0.015605   
    224. D(C  11,C   9,N   1,C   2)    -74.1593         0.015605   
    225. D(C  14,C  10,C   8,H  33)    128.1653         0.011944   
    226. D(C  14,C  10,C   8,H  32)     11.4138         0.011944   
    227. D(C  14,C  10,C   8,C   7)   -111.4439         0.011944   
    228. D(C  13,C  10,C   8,H  33)    -54.9115         0.011944   
    229. D(C  13,C  10,C   8,H  32)   -171.6630         0.011944   
    230. D(C  13,C  10,C   8,C   7)     65.4793         0.011944   
    231. D(H  34,C  11,C   9,C  12)    179.3723         0.028826   
    232. D(H  34,C  11,C   9,N   1)     -1.1013         0.028826   
    233. D(C  15,C  11,C   9,C  12)     -0.2097         0.028826   
    234. D(C  15,C  11,C   9,N   1)    179.3167         0.028826   
    235. D(C  45,C  12,C   9,C  11)   -178.5294         0.028147   
    236. D(C  45,C  12,C   9,N   1)      1.9448         0.028147   
    237. D(C  16,C  12,C   9,C  11)      0.3889         0.028147   
    238. D(C  16,C  12,C   9,N   1)   -179.1369         0.028147   
    239. D(H  35,C  13,C  10,C  14)   -178.4104         0.025762   
    240. D(H  35,C  13,C  10,C   8)      4.5865         0.025762   
    241. D(C  18,C  13,C  10,C  14)      1.2285         0.025762   
    242. D(C  18,C  13,C  10,C   8)   -175.7746         0.025762   
    243. D(H  36,C  14,C  10,C  13)    178.1468         0.026438   
    244. D(H  36,C  14,C  10,C   8)     -4.8591         0.026438   
    245. D(C  19,C  14,C  10,C  13)     -0.9753         0.026438   
    246. D(C  19,C  14,C  10,C   8)    176.0188         0.026438   
    247. D(H  37,C  15,C  11,H  34)      0.0985         0.027004   
    248. D(H  37,C  15,C  11,C   9)    179.6822         0.027004   
    249. D(C  17,C  15,C  11,H  34)   -179.7091         0.027004   
    250. D(C  17,C  15,C  11,C   9)     -0.1253         0.027004   
    251. D(H  44,C  16,C  12,C  45)     -1.3066         0.026787   
    252. D(H  44,C  16,C  12,C   9)    179.7761         0.026787   
    253. D(C  17,C  16,C  12,C  45)    178.6934         0.026787   
    254. D(C  17,C  16,C  12,C   9)     -0.2239         0.026787   
    255. D(H  38,C  17,C  16,H  44)      0.2776         0.025748   
    256. D(H  38,C  17,C  16,C  12)   -179.7224         0.025748   
    257. D(C  15,C  17,C  16,H  44)    179.8946         0.025748   
    258. D(C  15,C  17,C  16,C  12)     -0.1054         0.025748   
    259. D(H  38,C  17,C  15,H  37)      0.0927         0.027802   
    260. D(H  38,C  17,C  15,C  11)    179.8996         0.027802   
    261. D(C  16,C  17,C  15,H  37)   -179.5232         0.027802   
    262. D(C  16,C  17,C  15,C  11)      0.2836         0.027802   
    263. D(H  39,C  18,C  13,H  35)     -0.2294         0.027340   
    264. D(H  39,C  18,C  13,C  10)   -179.8681         0.027340   
    265. D(C  20,C  18,C  13,H  35)    179.2986         0.027340   
    266. D(C  20,C  18,C  13,C  10)     -0.3401         0.027340   
    267. D(H  40,C  19,C  14,H  36)     -0.4743         0.026490   
    268. D(H  40,C  19,C  14,C  10)    178.6479         0.026490   
    269. D(C  20,C  19,C  14,H  36)   -179.2887         0.026490   
    270. D(C  20,C  19,C  14,C  10)     -0.1664         0.026490   
    271. D(H  41,C  20,C  18,C  13)   -179.1118         0.026633   
    272. D(C  19,C  20,C  18,H  39)    178.7047         0.026633   
    273. D(C  19,C  20,C  18,C  13)     -0.8231         0.026633   
    274. D(H  41,C  20,C  19,H  40)      0.5480         0.026993   
    275. D(H  41,C  20,C  19,C  14)    179.3587         0.026993   
    276. D(C  18,C  20,C  19,H  40)   -177.7382         0.026993   
    277. D(C  18,C  20,C  19,C  14)      1.0726         0.026993   
    278. D(H  41,C  20,C  18,H  39)      0.4160         0.026633   
    279. D(H  48,C  45,C  12,C  16)    -46.0203         0.009750   
    280. D(H  48,C  45,C  12,C   9)    132.8955         0.009750   
    281. D(H  47,C  45,C  12,C  16)   -166.0203         0.009750   
    282. D(H  47,C  45,C  12,C   9)     12.8955         0.009750   
    283. D(H  46,C  45,C  12,C  16)     73.9797         0.009750   
    284. D(H  46,C  45,C  12,C   9)   -107.1045         0.009750   
    -----------------------------------------------------------------

Number of atoms                         .... 49
Number of degrees of freedom            .... 284

         *************************************************************
         *                GEOMETRY OPTIMIZATION CYCLE   1            *
         *************************************************************
---------------------------------
CARTESIAN COORDINATES (ANGSTROEM)
---------------------------------
  N     -2.165585    0.292676    0.721089
  N      0.045040    0.730823   -0.744177
  C     -0.847058    1.959287   -0.771206
  C     -2.188505    1.552633   -1.377367
  C     -1.039691    2.474694    0.651405
  C     -3.037320    0.783081   -0.345098
  C     -1.723633    1.413532    1.546095
  C     -2.685734   -0.841769    1.474284
  C     -2.780018   -2.105792    0.603354
  C      1.405794    0.948887   -0.252821
  C     -1.566519   -2.262401   -0.282479
  C      2.312541    1.601423   -1.066104
  C      1.741268    0.503842    1.014943
  C     -0.305665   -2.492960    0.271131
  C     -1.664793   -2.117795   -1.664340
  C      3.597263    1.813802   -0.579342
  C      3.024754    0.717594    1.507287
  C      3.944002    1.379324    0.690779
  C      0.826996   -2.551361   -0.530008
  C     -0.533793   -2.180390   -2.474483
  C      0.718894   -2.386465   -1.907907
  H     -0.336841    2.699143   -1.388239
  H     -2.022967    0.946286   -2.272808
  H     -2.704098    2.457406   -1.703350
  H     -1.658541    3.370778    0.573851
  H     -0.087093    2.788362    1.080217
  H     -3.825421    1.427691    0.070646
  H     -3.533805   -0.057088   -0.825558
  H     -1.019985    1.033429    2.289991
  H     -2.562493    1.863436    2.096397
  H     -1.987209   -1.022206    2.296132
  H     -3.663786   -0.623213    1.927050
  H     -3.681103   -2.082202   -0.012900
  H     -2.885305   -2.968444    1.266222
  H      2.034931    1.934310   -2.060822
  H     -0.210584   -2.634487    1.343937
  H     -2.639576   -1.968087   -2.118294
  H      4.329282    2.318473   -1.198678
  H      4.950673    1.550211    1.057473
  H      1.797119   -2.733554   -0.081353
  H     -0.635544   -2.087134   -3.550647
  H      1.601008   -2.446288   -2.535388
  H     -0.501358    0.071390   -0.143683
  H      0.074912    0.296439   -1.668744
  H      3.300197    0.383711    2.485833
  C      0.702301   -0.248101    1.867427
  H      0.360683    0.388368    2.656796
  H     -0.126743   -0.530131    1.252573
  H      1.151084   -1.124995    2.285222

----------------------------
CARTESIAN COORDINATES (A.U.)
----------------------------
  NO LB      ZA    FRAG     MASS         X           Y           Z
   0 N     7.0000    0    14.007   -4.092363    0.553077    1.362661
   1 N     7.0000    0    14.007    0.085113    1.381055   -1.406291
   2 C     6.0000    0    12.011   -1.600708    3.702516   -1.457368
   3 C     6.0000    0    12.011   -4.135675    2.934051   -2.602846
   4 C     6.0000    0    12.011   -1.964731    4.676494    1.230977
   5 C     6.0000    0    12.011   -5.739703    1.479809   -0.652141
   6 C     6.0000    0    12.011   -3.257194    2.671188    2.921696
   7 C     6.0000    0    12.011   -5.075302   -1.590713    2.785993
   8 C     6.0000    0    12.011   -5.253473   -3.979370    1.140174
   9 C     6.0000    0    12.011    2.656566    1.793137   -0.477762
  10 C     6.0000    0    12.011   -2.960292   -4.275318   -0.533808
  11 C     6.0000    0    12.011    4.370069    3.026251   -2.014645
  12 C     6.0000    0    12.011    3.290520    0.952123    1.917964
  13 C     6.0000    0    12.011   -0.577623   -4.711012    0.512363
  14 C     6.0000    0    12.011   -3.146003   -4.002053   -3.145147
  15 C     6.0000    0    12.011    6.797842    3.427589   -1.094798
  16 C     6.0000    0    12.011    5.715957    1.356056    2.848360
  17 C     6.0000    0    12.011    7.453084    2.606545    1.305383
  18 C     6.0000    0    12.011    1.562796   -4.821374   -1.001570
  19 C     6.0000    0    12.011   -1.008723   -4.120340   -4.676095
  20 C     6.0000    0    12.011    1.358513   -4.509765   -3.605422
  21 H     1.0000    0     1.008   -0.636537    5.100641   -2.623392
  22 H     1.0000    0     1.008   -3.822854    1.788221   -4.294985
  23 H     1.0000    0     1.008   -5.110005    4.643824   -3.218865
  24 H     1.0000    0     1.008   -3.134188    6.369847    1.084421
  25 H     1.0000    0     1.008   -0.164582    5.269241    2.041314
  26 H     1.0000    0     1.008   -7.228998    2.697945    0.133502
  27 H     1.0000    0     1.008   -6.677924   -0.107881   -1.560079
  28 H     1.0000    0     1.008   -1.927492    1.952898    4.327456
  29 H     1.0000    0     1.008   -4.842410    3.521384    3.961616
  30 H     1.0000    0     1.008   -3.755281   -1.931689    4.339061
  31 H     1.0000    0     1.008   -6.923552   -1.177702    3.641597
  32 H     1.0000    0     1.008   -6.956277   -3.934792   -0.024377
  33 H     1.0000    0     1.008   -5.452436   -5.609546    2.392813
  34 H     1.0000    0     1.008    3.845462    3.655316   -3.894389
  35 H     1.0000    0     1.008   -0.397946   -4.978459    2.539673
  36 H     1.0000    0     1.008   -4.988076   -3.719145   -4.002996
  37 H     1.0000    0     1.008    8.181157    4.381279   -2.265173
  38 H     1.0000    0     1.008    9.355416    2.929474    1.998334
  39 H     1.0000    0     1.008    3.396063   -5.165668   -0.153735
  40 H     1.0000    0     1.008   -1.201004   -3.944112   -6.709750
  41 H     1.0000    0     1.008    3.025467   -4.622814   -4.791189
  42 H     1.0000    0     1.008   -0.947429    0.134908   -0.271522
  43 H     1.0000    0     1.008    0.141563    0.560189   -3.153469
  44 H     1.0000    0     1.008    6.236469    0.725109    4.697544
  45 C     6.0000    0    12.011    1.327157   -0.468844    3.528925
  46 H     1.0000    0     1.008    0.681592    0.733908    5.020617
  47 H     1.0000    0     1.008   -0.239509   -1.001803    2.367019
  48 H     1.0000    0     1.008    2.175233   -2.125932    4.318443

--------------------------------
INTERNAL COORDINATES (ANGSTROEM)
--------------------------------
 N      0   0   0     0.000000000000     0.00000000     0.00000000
 N      1   0   0     2.688092285430     0.00000000     0.00000000
 C      2   1   0     1.518450923718    70.02680175     0.00000000
 C      3   2   1     1.527179978734   107.92031433   299.79130149
 C      3   2   1     1.525311084880   109.32744538    59.94914331
 C      1   2   3     1.461907552898    92.18698423    48.55239287
 C      1   2   3     1.460231023871    86.21322579   299.07207302
 C      1   2   3     1.457677312800   134.58445251   177.97148201
 C      8   1   2     1.537908541522   111.64877253   305.37867823
 C      2   1   3     1.463090590274   127.30711029   107.49902614
 C      9   8   1     1.510564896246   111.59597609    41.74879711
 C     10   2   1     1.381818581216   118.88311289   202.23228129
 C     10   2   1     1.384858626863   119.00207818    21.77363017
 C     11   9   8     1.396207109958   120.66778828    65.47926149
 C     11   9   8     1.392877775554   120.95360753   248.55605171
 C     12  10   2     1.390162832753   118.19593110   179.31665832
 C     13  10   2     1.391196910590   119.87362059   180.86306071
 C     16  12  10     1.386436591138   120.26637131   359.87470319
 C     14  11   9     1.388580323583   120.98409350   184.22543950
 C     15  11   9     1.392627306380   121.00880297   176.01880964
 C     20  15  11     1.390215806762   120.09074979   359.83359251
 H      3   2   1     1.090155039852   106.50926877   179.90226041
 H      4   3   2     1.094017412263   109.84899801   314.49197907
 H      4   3   2     1.091198991691   108.22955414   198.41239778
 H      5   3   2     1.091767594533   106.41975094   178.27097737
 H      5   3   2     1.090738417391   110.70427060    62.72894196
 H      6   1   2     1.099758297008   110.37944635   222.86656864
 H      6   1   2     1.087760596540   109.58483867   105.25378022
 H      7   1   2     1.092236264427   108.21921974   274.91314014
 H      7   1   2     1.099514438295   111.46586606   157.46685751
 H      8   1   2     1.093585306091   106.78598054    64.69334942
 H      8   1   2     1.099704274156   112.05068218   181.47883033
 H      9   8   1     1.091915590987   110.63710583   279.52829468
 H      9   8   1     1.092999456037   108.12872267   163.55532533
 H     12  10   2     1.085055282644   121.10097920   358.89868973
 H     14  11   9     1.086270225094   119.48226965     4.58654743
 H     15  11   9     1.085674268125   119.50423267   355.14088498
 H     16  12  10     1.083568971269   119.69235158   179.68223128
 H     18  16  12     1.084920899719   119.49389369   179.89955735
 H     19  14  11     1.084262068599   119.87849520   180.13189905
 H     20  15  11     1.084978756674   119.80068723   178.64792644
 H     21  20  15     1.084175403561   120.36086557   179.35873903
 H      2   1   3     1.045942493605    32.29376652   180.34709142
 H      2   1   3     1.021961806199   116.60925976   256.79548431
 H     17  13  10     1.070000000064   120.87728169   179.77607758
 C     13  10   2     1.540000000981   120.01580667     1.94479190
 H     46  13  10     1.070000001739   109.47120239   252.89551155
 H     46  13  10     1.069999995219   109.47120276    12.89552645
 H     46  13  10     1.070000002095   109.47123148   132.89551890

---------------------------
INTERNAL COORDINATES (A.U.)
---------------------------
 N      0   0   0     0.000000000000     0.00000000     0.00000000
 N      1   0   0     5.079758242170     0.00000000     0.00000000
 C      2   1   0     2.869456393627    70.02680175     0.00000000
 C      3   2   1     2.885951917015   107.92031433   299.79130149
 C      3   2   1     2.882420219458   109.32744538    59.94914331
 C      1   2   3     2.762604908087    92.18698423    48.55239287
 C      1   2   3     2.759436727372    86.21322579   299.07207302
 C      1   2   3     2.754610912822   134.58445251   177.97148201
 C      8   1   2     2.906225962494   111.64877253   305.37867823
 C      2   1   3     2.764840524735   127.30711029   107.49902614
 C      9   8   1     2.854553961420   111.59597609    41.74879711
 C     10   2   1     2.611258685262   118.88311289   202.23228129
 C     10   2   1     2.617003538969   119.00207818    21.77363017
 C     11   9   8     2.638449064054   120.66778828    65.47926149
 C     11   9   8     2.632157533823   120.95360753   248.55605171
 C     12  10   2     2.627027035460   118.19593110   179.31665832
 C     13  10   2     2.628981159373   119.87362059   180.86306071
 C     16  12  10     2.619985459298   120.26637131   359.87470319
 C     14  11   9     2.624036526524   120.98409350   184.22543950
 C     15  11   9     2.631684215678   121.00880297   176.01880964
 C     20  15  11     2.627127141828   120.09074979   359.83359251
 H      3   2   1     2.060094468834   106.50926877   179.90226041
 H      4   3   2     2.067393294918   109.84899801   314.49197907
 H      4   3   2     2.062067251907   108.22955414   198.41239778
 H      5   3   2     2.063141755557   106.41975094   178.27097737
 H      5   3   2     2.061196892615   110.70427060    62.72894196
 H      6   1   2     2.078241994852   110.37944635   222.86656864
 H      6   1   2     2.055569626732   109.58483867   105.25378022
 H      7   1   2     2.064027413304   108.21921974   274.91314014
 H      7   1   2     2.077781168671   111.46586606   157.46685751
 H      8   1   2     2.066576732592   106.78598054    64.69334942
 H      8   1   2     2.078139906457   112.05068218   181.47883033
 H      9   8   1     2.063421428325   110.63710583   279.52829468
 H      9   8   1     2.065469636435   108.12872267   163.55532533
 H     12  10   2     2.050457324361   121.10097920   358.89868973
 H     14  11   9     2.052753232861   119.48226965     4.58654743
 H     15  11   9     2.051627037402   119.50423267   355.14088498
 H     16  12  10     2.047648602914   119.69235158   179.68223128
 H     18  16  12     2.050203377435   119.49389369   179.89955735
 H     19  14  11     2.048958367051   119.87849520   180.13189905
 H     20  15  11     2.050312711235   119.80068723   178.64792644
 H     21  20  15     2.048794593863   120.36086557   179.35873903
 H      2   1   3     1.976544864744    32.29376652   180.34709142
 H      2   1   3     1.931227933043   116.60925976   256.79548431
 H     17  13  10     2.022006963417   120.87728169   179.77607758
 C     13  10   2     2.910178248092   120.01580667     1.94479190
 H     46  13  10     2.022006966581   109.47120239   252.89551155
 H     46  13  10     2.022006954262   109.47120276    12.89552645
 H     46  13  10     2.022006967254   109.47123148   132.89551890

---------------------
BASIS SET INFORMATION
---------------------
There are 3 groups of distinct atoms

 Group   1 Type N   : 11s6p2d1f contracted to 5s3p2d1f pattern {62111/411/11/1}
 Group   2 Type C   : 11s6p2d1f contracted to 5s3p2d1f pattern {62111/411/11/1}
 Group   3 Type H   : 5s1p contracted to 3s1p pattern {311/1}

Atom   0N    basis set group =>   1
Atom   1N    basis set group =>   1
Atom   2C    basis set group =>   2
Atom   3C    basis set group =>   2
Atom   4C    basis set group =>   2
Atom   5C    basis set group =>   2
Atom   6C    basis set group =>   2
Atom   7C    basis set group =>   2
Atom   8C    basis set group =>   2
Atom   9C    basis set group =>   2
Atom  10C    basis set group =>   2
Atom  11C    basis set group =>   2
Atom  12C    basis set group =>   2
Atom  13C    basis set group =>   2
Atom  14C    basis set group =>   2
Atom  15C    basis set group =>   2
Atom  16C    basis set group =>   2
Atom  17C    basis set group =>   2
Atom  18C    basis set group =>   2
Atom  19C    basis set group =>   2
Atom  20C    basis set group =>   2
Atom  21H    basis set group =>   3
Atom  22H    basis set group =>   3
Atom  23H    basis set group =>   3
Atom  24H    basis set group =>   3
Atom  25H    basis set group =>   3
Atom  26H    basis set group =>   3
Atom  27H    basis set group =>   3
Atom  28H    basis set group =>   3
Atom  29H    basis set group =>   3
Atom  30H    basis set group =>   3
Atom  31H    basis set group =>   3
Atom  32H    basis set group =>   3
Atom  33H    basis set group =>   3
Atom  34H    basis set group =>   3
Atom  35H    basis set group =>   3
Atom  36H    basis set group =>   3
Atom  37H    basis set group =>   3
Atom  38H    basis set group =>   3
Atom  39H    basis set group =>   3
Atom  40H    basis set group =>   3
Atom  41H    basis set group =>   3
Atom  42H    basis set group =>   3
Atom  43H    basis set group =>   3
Atom  44H    basis set group =>   3
Atom  45C    basis set group =>   2
Atom  46H    basis set group =>   3
Atom  47H    basis set group =>   3
Atom  48H    basis set group =>   3
---------------------------------
AUXILIARY/J BASIS SET INFORMATION
---------------------------------
There are 3 groups of distinct atoms

 Group   1 Type N   : 12s5p4d2f1g contracted to 6s4p3d1f1g pattern {711111/2111/211/2/1}
 Group   2 Type C   : 12s5p4d2f1g contracted to 6s4p3d1f1g pattern {711111/2111/211/2/1}
 Group   3 Type H   : 5s2p1d contracted to 3s1p1d pattern {311/2/1}

Atom   0N    basis set group =>   1
Atom   1N    basis set group =>   1
Atom   2C    basis set group =>   2
Atom   3C    basis set group =>   2
Atom   4C    basis set group =>   2
Atom   5C    basis set group =>   2
Atom   6C    basis set group =>   2
Atom   7C    basis set group =>   2
Atom   8C    basis set group =>   2
Atom   9C    basis set group =>   2
Atom  10C    basis set group =>   2
Atom  11C    basis set group =>   2
Atom  12C    basis set group =>   2
Atom  13C    basis set group =>   2
Atom  14C    basis set group =>   2
Atom  15C    basis set group =>   2
Atom  16C    basis set group =>   2
Atom  17C    basis set group =>   2
Atom  18C    basis set group =>   2
Atom  19C    basis set group =>   2
Atom  20C    basis set group =>   2
Atom  21H    basis set group =>   3
Atom  22H    basis set group =>   3
Atom  23H    basis set group =>   3
Atom  24H    basis set group =>   3
Atom  25H    basis set group =>   3
Atom  26H    basis set group =>   3
Atom  27H    basis set group =>   3
Atom  28H    basis set group =>   3
Atom  29H    basis set group =>   3
Atom  30H    basis set group =>   3
Atom  31H    basis set group =>   3
Atom  32H    basis set group =>   3
Atom  33H    basis set group =>   3
Atom  34H    basis set group =>   3
Atom  35H    basis set group =>   3
Atom  36H    basis set group =>   3
Atom  37H    basis set group =>   3
Atom  38H    basis set group =>   3
Atom  39H    basis set group =>   3
Atom  40H    basis set group =>   3
Atom  41H    basis set group =>   3
Atom  42H    basis set group =>   3
Atom  43H    basis set group =>   3
Atom  44H    basis set group =>   3
Atom  45C    basis set group =>   2
Atom  46H    basis set group =>   3
Atom  47H    basis set group =>   3
Atom  48H    basis set group =>   3


           ************************************************************
           *        Program running with 8 parallel MPI-processes     *
           *              working on a common directory               *
           ************************************************************
------------------------------------------------------------------------------
                           ORCA GTO INTEGRAL CALCULATION
                           -- RI-GTO INTEGRALS CHOSEN --
------------------------------------------------------------------------------
------------------------------------------------------------------------------
                   ___                                                        
                  /   \      - P O W E R E D   B Y -                         
                 /     \                                                     
                 |  |  |   _    _      __       _____    __    __             
                 |  |  |  | |  | |    /  \     |  _  \  |  |  /  |          
                  \  \/   | |  | |   /    \    | | | |  |  | /  /          
                 / \  \   | |__| |  /  /\  \   | |_| |  |  |/  /          
                |  |  |   |  __  | /  /__\  \  |    /   |      \           
                |  |  |   | |  | | |   __   |  |    \   |  |\   \          
                \     /   | |  | | |  |  |  |  | |\  \  |  | \   \       
                 \___/    |_|  |_| |__|  |__|  |_| \__\ |__|  \__/        
                                                                              
                      - O R C A' S   B I G   F R I E N D -                    
                                      &                                       
                       - I N T E G R A L  F E E D E R -                       
                                                                              
 v1 FN, 2020, v2 2021                                                         
------------------------------------------------------------------------------


Reading SHARK input file desprop_oMe-Fentanyl_exoNProt_1.SHARKINP.tmp ... ok
----------------------
SHARK INTEGRAL PACKAGE
----------------------

Number of atoms                             ...     49
Number of basis functions                   ...    844
Number of shells                            ...    350
Maximum angular momentum                    ...      3
Integral batch strategy                     ... SHARK/LIBINT Hybrid
RI-J (if used) integral strategy            ... SPLIT-RIJ (Revised 2003 algorithm where possible)
Printlevel                                  ...      1
Contraction scheme used                     ... SEGMENTED contraction
Coulomb Range Separation                    ... NOT USED
Exchange Range Separation                   ... Long Range
   Mu parameter                             ...  0.300000
   Scaling (regular/separated)              ...  0.167000  0.833000
Finite Nucleus Model                        ... NOT USED
Auxiliary Coulomb fitting basis             ... AVAILABLE
   # of basis functions in Aux-J            ...   1375
   # of shells in Aux-J                     ...    465
   Maximum angular momentum in Aux-J        ...      4
Auxiliary J/K fitting basis                 ... NOT available
Auxiliary Correlation fitting basis         ... NOT available
Auxiliary 'external' fitting basis          ... NOT available
Integral threshold                          ...     2.500000e-11
Primitive cut-off                           ...     2.500000e-12
Primitive pair pre-selection threshold      ...     2.500000e-12

Calculating pre-screening integrals         ... done (  0.1 sec) Dimension = 350
Organizing shell pair data                  ... done (  0.5 sec)
Shell pair information
Total number of shell pairs                 ...     61425
Shell pairs after pre-screening             ...     49267
Total number of primitive shell pairs       ...    182068
Primitive shell pairs kept                  ...     98786
          la=0 lb=0:  14272 shell pairs
          la=1 lb=0:  14445 shell pairs
          la=1 lb=1:   3738 shell pairs
          la=2 lb=0:   6714 shell pairs
          la=2 lb=1:   3463 shell pairs
          la=2 lb=2:    836 shell pairs
          la=3 lb=0:   3158 shell pairs
          la=3 lb=1:   1667 shell pairs
          la=3 lb=2:    771 shell pairs
          la=3 lb=3:    203 shell pairs

Calculating one electron integrals          ... done (  0.1 sec)
Calculating RI/J V-Matrix + Cholesky decomp.... done (  0.1 sec)
Calculating Nuclear repulsion               ... done (  0.0 sec) ENN=   1978.283907175425 Eh

SHARK setup successfully completed in   1.4 seconds

Maximum memory used throughout the entire GTOINT-calculation: 70.7 MB
[1704170848.965451] [gra1283:155003:0]          mpool.c:42   UCX  WARN  object 0xc00ee80 was not returned to mpool ucp_requests
[1704170848.965476] [gra1283:155003:0]          mpool.c:42   UCX  WARN  object 0xc00f040 was not returned to mpool ucp_requests
[1704170848.965483] [gra1283:155003:0]          mpool.c:42   UCX  WARN  object 0xc00f200 was not returned to mpool ucp_requests
[1704170848.965488] [gra1283:155003:0]          mpool.c:42   UCX  WARN  object 0xc00f3c0 was not returned to mpool ucp_requests
[1704170848.965493] [gra1283:155003:0]          mpool.c:42   UCX  WARN  object 0xc00f580 was not returned to mpool ucp_requests
[1704170848.965498] [gra1283:155003:0]          mpool.c:42   UCX  WARN  object 0xc00f740 was not returned to mpool ucp_requests
[1704170848.965495] [gra1283:155000:0]          mpool.c:42   UCX  WARN  object 0xbf91740 was not returned to mpool ucp_requests
[1704170848.965511] [gra1283:155000:0]          mpool.c:42   UCX  WARN  object 0xbf91900 was not returned to mpool ucp_requests
[1704170848.965518] [gra1283:155000:0]          mpool.c:42   UCX  WARN  object 0xbf91ac0 was not returned to mpool ucp_requests
[1704170848.965507] [gra1283:155003:0]          mpool.c:42   UCX  WARN  object 0xc00f900 was not returned to mpool ucp_requests
[1704170848.965513] [gra1283:155003:0]          mpool.c:42   UCX  WARN  object 0xc00fac0 was not returned to mpool ucp_requests
[1704170848.965517] [gra1283:155003:0]          mpool.c:42   UCX  WARN  object 0xc00fc80 was not returned to mpool ucp_requests
[1704170848.965522] [gra1283:155003:0]          mpool.c:42   UCX  WARN  object 0xc00fe40 was not returned to mpool ucp_requests
[1704170848.965527] [gra1283:155003:0]          mpool.c:42   UCX  WARN  object 0xc010000 was not returned to mpool ucp_requests
[1704170848.965535] [gra1283:155003:0]          mpool.c:42   UCX  WARN  object 0xc0101c0 was not returned to mpool ucp_requests
[1704170848.965526] [gra1283:155000:0]          mpool.c:42   UCX  WARN  object 0xbf91c80 was not returned to mpool ucp_requests
[1704170848.965532] [gra1283:155000:0]          mpool.c:42   UCX  WARN  object 0xbf91e40 was not returned to mpool ucp_requests
[1704170848.965536] [gra1283:155000:0]          mpool.c:42   UCX  WARN  object 0xbf92000 was not returned to mpool ucp_requests
[1704170848.965542] [gra1283:155000:0]          mpool.c:42   UCX  WARN  object 0xbf921c0 was not returned to mpool ucp_requests
[1704170848.966242] [gra1283:155001:0]          mpool.c:42   UCX  WARN  object 0xafe8d00 was not returned to mpool ucp_requests
[1704170848.966260] [gra1283:155001:0]          mpool.c:42   UCX  WARN  object 0xafe8ec0 was not returned to mpool ucp_requests
[1704170848.966270] [gra1283:155001:0]          mpool.c:42   UCX  WARN  object 0xafe9080 was not returned to mpool ucp_requests
[1704170848.966275] [gra1283:155001:0]          mpool.c:42   UCX  WARN  object 0xafe9240 was not returned to mpool ucp_requests
[1704170848.966280] [gra1283:155001:0]          mpool.c:42   UCX  WARN  object 0xafe9400 was not returned to mpool ucp_requests
[1704170848.966285] [gra1283:155001:0]          mpool.c:42   UCX  WARN  object 0xafe95c0 was not returned to mpool ucp_requests
[1704170848.966294] [gra1283:155001:0]          mpool.c:42   UCX  WARN  object 0xafe9780 was not returned to mpool ucp_requests
[1704170848.966300] [gra1283:155001:0]          mpool.c:42   UCX  WARN  object 0xafe9940 was not returned to mpool ucp_requests
[1704170848.966305] [gra1283:155001:0]          mpool.c:42   UCX  WARN  object 0xafe9b00 was not returned to mpool ucp_requests
[1704170848.966310] [gra1283:155001:0]          mpool.c:42   UCX  WARN  object 0xafe9cc0 was not returned to mpool ucp_requests
[1704170848.966315] [gra1283:155001:0]          mpool.c:42   UCX  WARN  object 0xafe9e80 was not returned to mpool ucp_requests
[1704170848.967336] [gra1283:155006:0]          mpool.c:42   UCX  WARN  object 0xb0d6200 was not returned to mpool ucp_requests
[1704170848.967353] [gra1283:155006:0]          mpool.c:42   UCX  WARN  object 0xb0d63c0 was not returned to mpool ucp_requests
[1704170848.967363] [gra1283:155006:0]          mpool.c:42   UCX  WARN  object 0xb0d6580 was not returned to mpool ucp_requests
[1704170848.967368] [gra1283:155006:0]          mpool.c:42   UCX  WARN  object 0xb0d6740 was not returned to mpool ucp_requests
[1704170848.967376] [gra1283:155006:0]          mpool.c:42   UCX  WARN  object 0xb0d6900 was not returned to mpool ucp_requests
[1704170848.967389] [gra1283:155006:0]          mpool.c:42   UCX  WARN  object 0xb0d6ac0 was not returned to mpool ucp_requests
[1704170848.967396] [gra1283:155006:0]          mpool.c:42   UCX  WARN  object 0xb0d6c80 was not returned to mpool ucp_requests
[1704170848.967402] [gra1283:155006:0]          mpool.c:42   UCX  WARN  object 0xb0d6e40 was not returned to mpool ucp_requests
[1704170848.967407] [gra1283:155006:0]          mpool.c:42   UCX  WARN  object 0xb0d7000 was not returned to mpool ucp_requests
[1704170848.967411] [gra1283:155006:0]          mpool.c:42   UCX  WARN  object 0xb0d71c0 was not returned to mpool ucp_requests
[1704170848.967601] [gra1283:155005:0]          mpool.c:42   UCX  WARN  object 0xbea5200 was not returned to mpool ucp_requests
[1704170848.967622] [gra1283:155005:0]          mpool.c:42   UCX  WARN  object 0xbea53c0 was not returned to mpool ucp_requests
[1704170848.967629] [gra1283:155005:0]          mpool.c:42   UCX  WARN  object 0xbea5580 was not returned to mpool ucp_requests
[1704170848.967639] [gra1283:155005:0]          mpool.c:42   UCX  WARN  object 0xbea5740 was not returned to mpool ucp_requests
[1704170848.967645] [gra1283:155005:0]          mpool.c:42   UCX  WARN  object 0xbea5900 was not returned to mpool ucp_requests
[1704170848.967639] [gra1283:155002:0]          mpool.c:42   UCX  WARN  object 0xb013fc0 was not returned to mpool ucp_requests
[1704170848.967654] [gra1283:155002:0]          mpool.c:42   UCX  WARN  object 0xb014180 was not returned to mpool ucp_requests
[1704170848.967661] [gra1283:155002:0]          mpool.c:42   UCX  WARN  object 0xb014340 was not returned to mpool ucp_requests
[1704170848.967666] [gra1283:155002:0]          mpool.c:42   UCX  WARN  object 0xb014500 was not returned to mpool ucp_requests
[1704170848.967671] [gra1283:155002:0]          mpool.c:42   UCX  WARN  object 0xb0146c0 was not returned to mpool ucp_requests
[1704170848.967676] [gra1283:155002:0]          mpool.c:42   UCX  WARN  object 0xb014880 was not returned to mpool ucp_requests
[1704170848.967680] [gra1283:155002:0]          mpool.c:42   UCX  WARN  object 0xb014a40 was not returned to mpool ucp_requests
[1704170848.967685] [gra1283:155002:0]          mpool.c:42   UCX  WARN  object 0xb014c00 was not returned to mpool ucp_requests
[1704170848.967690] [gra1283:155002:0]          mpool.c:42   UCX  WARN  object 0xb014dc0 was not returned to mpool ucp_requests
[1704170848.967650] [gra1283:155005:0]          mpool.c:42   UCX  WARN  object 0xbea5ac0 was not returned to mpool ucp_requests
[1704170848.967655] [gra1283:155005:0]          mpool.c:42   UCX  WARN  object 0xbea5c80 was not returned to mpool ucp_requests
[1704170848.967660] [gra1283:155005:0]          mpool.c:42   UCX  WARN  object 0xbea5e40 was not returned to mpool ucp_requests
[1704170848.967665] [gra1283:155005:0]          mpool.c:42   UCX  WARN  object 0xbea6000 was not returned to mpool ucp_requests
[1704170848.967669] [gra1283:155005:0]          mpool.c:42   UCX  WARN  object 0xbea61c0 was not returned to mpool ucp_requests
[1704170848.967695] [gra1283:155002:0]          mpool.c:42   UCX  WARN  object 0xb014f80 was not returned to mpool ucp_requests
[1704170848.967700] [gra1283:155002:0]          mpool.c:42   UCX  WARN  object 0xb015140 was not returned to mpool ucp_requests
[1704170848.968808] [gra1283:155004:0]          mpool.c:42   UCX  WARN  object 0xb5b0b40 was not returned to mpool ucp_requests
[1704170848.968865] [gra1283:155004:0]          mpool.c:42   UCX  WARN  object 0xb5b0d00 was not returned to mpool ucp_requests
[1704170848.968907] [gra1283:155004:0]          mpool.c:42   UCX  WARN  object 0xb5b0ec0 was not returned to mpool ucp_requests
[1704170848.968955] [gra1283:155004:0]          mpool.c:42   UCX  WARN  object 0xb5b1080 was not returned to mpool ucp_requests
[1704170848.968994] [gra1283:155004:0]          mpool.c:42   UCX  WARN  object 0xb5b1240 was not returned to mpool ucp_requests
[1704170848.969033] [gra1283:155004:0]          mpool.c:42   UCX  WARN  object 0xb5b1400 was not returned to mpool ucp_requests
[1704170848.969084] [gra1283:155004:0]          mpool.c:42   UCX  WARN  object 0xb5b15c0 was not returned to mpool ucp_requests
[1704170848.969122] [gra1283:155004:0]          mpool.c:42   UCX  WARN  object 0xb5b1780 was not returned to mpool ucp_requests
[1704170848.969160] [gra1283:155004:0]          mpool.c:42   UCX  WARN  object 0xb5b1940 was not returned to mpool ucp_requests
[1704170848.969199] [gra1283:155004:0]          mpool.c:42   UCX  WARN  object 0xb5b1b00 was not returned to mpool ucp_requests
[1704170848.969237] [gra1283:155004:0]          mpool.c:42   UCX  WARN  object 0xb5b1cc0 was not returned to mpool ucp_requests
[1704170848.969276] [gra1283:155004:0]          mpool.c:42   UCX  WARN  object 0xb5b1e80 was not returned to mpool ucp_requests


           ************************************************************
           *        Program running with 8 parallel MPI-processes     *
           *              working on a common directory               *
           ************************************************************
-------------------------------------------------------------------------------
                                 ORCA SCF
-------------------------------------------------------------------------------

------------
SCF SETTINGS
------------
Hamiltonian:
 Density Functional     Method          .... DFT(GTOs)
 Exchange Functional    Exchange        .... WB97X-V
 Correlation Functional Correlation     .... WB97X-V
 Gradients option       PostSCFGGA      .... off
 Hybrid DFT is turned on
   Fraction HF Exchange ScalHFX         ....  0.167000
   Scaling of DF-GGA-X  ScalDFX         ....  0.000000
   Scaling of DF-GGA-C  ScalDFC         ....  1.000000
   Scaling of DF-LDA-C  ScalLDAC        ....  1.000000
   Perturbative correction              ....  0.000000
   Density functional embedding theory  .... OFF
 Long-range corrected/Screened/Range-Separated Hybrid DFT is turned on
   Amount of maximum screened exact exchange              ....  0.833000
   Range separation parameter mu (erf(mu*r12)/r12)        ....  0.300000
 RI-approximation to the Coulomb term is turned on
   Number of AuxJ basis functions       .... 1375
   RIJ-COSX (HFX calculated with COS-X)).... on


General Settings:
 Integral files         IntName         .... desprop_oMe-Fentanyl_exoNProt_1
 Hartree-Fock type      HFTyp           .... RHF
 Total Charge           Charge          ....    1
 Multiplicity           Mult            ....    1
 Number of Electrons    NEL             ....  160
 Basis Dimension        Dim             ....  844
 Nuclear Repulsion      ENuc            ....   1978.2839071754 Eh

Convergence Acceleration:
 DIIS                   CNVDIIS         .... on
   Start iteration      DIISMaxIt       ....    12
   Startup error        DIISStart       ....  0.200000
   # of expansion vecs  DIISMaxEq       ....     5
   Bias factor          DIISBfac        ....   1.050
   Max. coefficient     DIISMaxC        ....  10.000
 Trust-Rad. Augm. Hess. CNVTRAH         .... auto
   Auto Start mean grad. ratio tolernc. ....  1.125000
   Auto Start start iteration           ....    20
   Auto Start num. interpolation iter.  ....    10
   Max. Number of Micro iterations      ....    16
   Max. Number of Macro iterations      .... Maxiter - #DIIS iter
   Number of Davidson start vectors     ....     2
   Converg. threshold I  (grad. norm)   ....   1.000e-05
   Converg. threshold II (energy diff.) ....   1.000e-08
   Grad. Scal. Fac. for Micro threshold ....   0.100
   Minimum threshold for Micro iter.    ....   0.010
   NR start threshold (gradient norm)   ....   0.001
   Initial trust radius                 ....   0.400
   Minimum AH scaling param. (alpha)    ....   1.000
   Maximum AH scaling param. (alpha)    .... 1000.000
   Orbital update algorithm             .... Taylor
   White noise on init. David. guess    .... on
   Maximum white noise                  ....   0.010
   Quad. conv. algorithm                .... NR
 SOSCF                  CNVSOSCF        .... on
   Start iteration      SOSCFMaxIt      ....   150
   Startup grad/error   SOSCFStart      ....  0.003300
 Level Shifting         CNVShift        .... on
   Level shift para.    LevelShift      ....    0.2500
   Turn off err/grad.   ShiftErr        ....    0.0010
 Zerner damping         CNVZerner       .... off
 Static damping         CNVDamp         .... on
   Fraction old density DampFac         ....    0.7000
   Max. Damping (<1)    DampMax         ....    0.9800
   Min. Damping (>=0)   DampMin         ....    0.0000
   Turn off err/grad.   DampErr         ....    0.1000
 Fernandez-Rico         CNVRico         .... off

SCF Procedure:
 Maximum # iterations   MaxIter         ....   125
 SCF integral mode      SCFMode         .... Direct
   Integral package                     .... SHARK and LIBINT hybrid scheme
 Reset frequency        DirectResetFreq ....    20
 Integral Threshold     Thresh          ....  2.500e-11 Eh
 Primitive CutOff       TCut            ....  2.500e-12 Eh

Convergence Tolerance:
 Convergence Check Mode ConvCheckMode   .... Total+1el-Energy
 Convergence forced     ConvForced      .... 0
 Energy Change          TolE            ....  1.000e-08 Eh
 1-El. energy change                    ....  1.000e-05 Eh
 Orbital Gradient       TolG            ....  1.000e-05
 Orbital Rotation angle TolX            ....  1.000e-05
 DIIS Error             TolErr          ....  5.000e-07


Diagonalization of the overlap matrix:
Smallest eigenvalue                        ... 5.015e-06
Time for diagonalization                   ...    0.158 sec
Threshold for overlap eigenvalues          ... 1.000e-08
Number of eigenvalues below threshold      ... 0
Time for construction of square roots      ...    0.079 sec
Total time needed                          ...    0.241 sec

Time for model grid setup =    0.438 sec

------------------------------
INITIAL GUESS: MODEL POTENTIAL
------------------------------
Loading Hartree-Fock densities                     ... done
Calculating cut-offs                               ... done
Initializing the effective Hamiltonian             ... done
Setting up the integral package (SHARK)            ... done
Starting the Coulomb interaction                   ... done (   1.0 sec)
Reading the grid                                   ... done
Mapping shells                                     ... done
Starting the XC term evaluation                    ... done (   0.6 sec)
  promolecular density results
     # of electrons  =    160.984979408
     EX              =    -82.447774622
     EC              =     -6.594157799
     EX+EC           =    -89.041932421
Transforming the Hamiltonian                       ... done (   0.1 sec)
Diagonalizing the Hamiltonian                      ... done (   0.2 sec)
Back transforming the eigenvectors                 ... done (   0.0 sec)
Now organizing SCF variables                       ... done
                      ------------------
                      INITIAL GUESS DONE (   2.3 sec)
                      ------------------
-------------------
DFT GRID GENERATION
-------------------

General Integration Accuracy     IntAcc      ... 4.959
Radial Grid Type                 RadialGrid  ... OptM3 with GC (2021)
Angular Grid (max. ang.)         AngularGrid ... 6 (Lebedev-590)
Angular grid pruning method      GridPruning ... 4 (adaptive)
Weight generation scheme         WeightScheme... Becke
Basis function cutoff            BFCut       ... 1.0000e-11
Integration weight cutoff        WCut        ... 1.0000e-14
Angular grids for H and He will be reduced by one unit
Partially contracted basis set               ... off
Rotationally invariant grid construction     ... off

Total number of grid points                  ...   532091
Total number of batches                      ...     8339
Average number of points per batch           ...       63
Average number of grid points per atom       ...    10859
Time for grid setup =    7.140 sec

--------------------
COSX GRID GENERATION
--------------------

GRIDX 1
-------
General Integration Accuracy     IntAcc      ... 4.020
Radial Grid Type                 RadialGrid  ... OptM3 with GC (2021)
Angular Grid (max. ang.)         AngularGrid ... 2 (Lebedev-110)
Angular grid pruning method      GridPruning ... 4 (adaptive)
Weight generation scheme         WeightScheme... Becke
Basis function cutoff            BFCut       ... 1.0000e-11
Integration weight cutoff        WCut        ... 1.0000e-14
Angular grids for H and He will be reduced by one unit
Partially contracted basis set               ... on
Rotationally invariant grid construction     ... off

Total number of grid points                  ...    57045
Total number of batches                      ...      915
Average number of points per batch           ...       62
Average number of grid points per atom       ...     1164
UseSFitting                                  ... on

GRIDX 2
-------
General Integration Accuracy     IntAcc      ... 4.338
Radial Grid Type                 RadialGrid  ... OptM3 with GC (2021)
Angular Grid (max. ang.)         AngularGrid ... 3 (Lebedev-194)
Angular grid pruning method      GridPruning ... 4 (adaptive)
Weight generation scheme         WeightScheme... Becke
Basis function cutoff            BFCut       ... 1.0000e-11
Integration weight cutoff        WCut        ... 1.0000e-14
Angular grids for H and He will be reduced by one unit
Partially contracted basis set               ... on
Rotationally invariant grid construction     ... off

Total number of grid points                  ...   123757
Total number of batches                      ...     1958
Average number of points per batch           ...       63
Average number of grid points per atom       ...     2526
UseSFitting                                  ... on

GRIDX 3
-------
General Integration Accuracy     IntAcc      ... 4.871
Radial Grid Type                 RadialGrid  ... OptM3 with GC (2021)
Angular Grid (max. ang.)         AngularGrid ... 4 (Lebedev-302)
Angular grid pruning method      GridPruning ... 4 (adaptive)
Weight generation scheme         WeightScheme... Becke
Basis function cutoff            BFCut       ... 1.0000e-11
Integration weight cutoff        WCut        ... 1.0000e-14
Angular grids for H and He will be reduced by one unit
Partially contracted basis set               ... on
Rotationally invariant grid construction     ... off

Total number of grid points                  ...   236126
Total number of batches                      ...     3716
Average number of points per batch           ...       63
Average number of grid points per atom       ...     4819
UseSFitting                                  ... on

Time for X-Grid setup             =    5.246 sec

--------------
SCF ITERATIONS
--------------
ITER       Energy         Delta-E        Max-DP      RMS-DP      [F,P]     Damp
               ***  Starting incremental Fock matrix formation  ***
  0   -888.1553891194   0.000000000000 0.06346883  0.00069621  0.3108061 0.7000
  1   -888.2103123663  -0.054923246850 0.05299632  0.00061413  0.2098802 0.7000
                               ***Turning on DIIS***
  2   -888.2429868711  -0.032674504880 0.04525384  0.00047472  0.1428724 0.7000
  3   -888.2644835220  -0.021496650849 0.13839937  0.00126623  0.0979476 0.0000
  4   -888.3156394372  -0.051155915198 0.01428090  0.00016061  0.0055965 0.0000
  5   -888.3160237668  -0.000384329577 0.00573357  0.00006752  0.0034619 0.0000
                      *** Initiating the SOSCF procedure ***
                           *** Shutting down DIIS ***
                      *** Re-Reading the Fockian *** 
                      *** Removing any level shift *** 
ITER      Energy       Delta-E        Grad      Rot      Max-DP    RMS-DP
  6   -888.31612065  -0.0000968861  0.000331  0.000331  0.004911  0.000059
               *** Restarting incremental Fock matrix formation ***
  7   -888.31614528  -0.0000246230  0.000106  0.000259  0.000592  0.000008
  8   -888.31614599  -0.0000007174  0.000076  0.000166  0.000503  0.000005
  9   -888.31614651  -0.0000005174  0.000021  0.000075  0.000363  0.000004
 10   -888.31614653  -0.0000000157  0.000013  0.000040  0.000280  0.000003
 11   -888.31614657  -0.0000000410  0.000004  0.000008  0.000563  0.000004
                  ***Gradient check signals convergence***
              ***Rediagonalizing the Fockian in SOSCF/NRSCF***

               *****************************************************
               *                     SUCCESS                       *
               *           SCF CONVERGED AFTER  12 CYCLES          *
               *****************************************************

Old exchange energy                            =    -41.949080058 Eh
New exchange energy                            =    -41.949075235 Eh
Exchange energy change after final integration =      0.000004823 Eh
Total energy after final integration           =   -888.316141738 Eh
Final COS-X integration done in                =   165.923 sec

----------------
TOTAL SCF ENERGY
----------------

Total Energy       :         -888.31614174 Eh          -24172.31111 eV

Components:
Nuclear Repulsion  :         1978.28390718 Eh           53831.84187 eV
Electronic Energy  :        -2866.60004891 Eh          -78004.15299 eV
One Electron Energy:        -5109.99875455 Eh         -139050.13528 eV
Two Electron Energy:         2243.39870564 Eh           61045.98230 eV
Max COSX asymmetry :            0.00000048 Eh               0.00001 eV

Virial components:
Potential Energy   :        -1772.83544752 Eh          -48241.30507 eV
Kinetic Energy     :          884.51930578 Eh           24068.99395 eV
Virial Ratio       :            2.00429254


DFT components:
N(Alpha)           :       79.999985483929 electrons
N(Beta)            :       79.999985483929 electrons
N(Total)           :      159.999970967858 electrons
E(X)               :      -84.481416012153 Eh       
E(C)               :       -6.593482262526 Eh       
E(XC)              :      -91.074898274679 Eh       
DFET-embed. en.    :        0.000000000000 Eh       

---------------
SCF CONVERGENCE
---------------

  Last Energy change         ...    6.9193e-09  Tolerance :   1.0000e-08
  Last MAX-Density change    ...    2.4425e-15  Tolerance :   1.0000e-07
  Last RMS-Density change    ...    1.2270e-17  Tolerance :   5.0000e-09
  Last Orbital Gradient      ...    9.7183e-07  Tolerance :   1.0000e-05
[...]
    132      -0.027145  -0.048136  -0.353757   0.011197   0.000654   0.134831
    133       0.016165   0.029624   0.212003  -0.006687  -0.000415  -0.083346
    134      -0.061613  -0.111971  -0.805887   0.025461   0.001506   0.314137
    135       0.002457  -0.006240   0.003862  -0.001184  -0.000649  -0.000710
    136       0.000521  -0.001743  -0.000576  -0.000496  -0.000636   0.000248
    137       0.001433  -0.003759   0.002387  -0.000759  -0.000509  -0.000378
    138       0.001477  -0.006081   0.003133  -0.001083  -0.001033  -0.000802
    139      -0.003479   0.007979  -0.002512   0.003062   0.003646  -0.000078
    140      -0.002637   0.007139  -0.002841   0.002621   0.003114   0.000365
    141      -0.024463   0.074603  -0.030835   0.013854   0.009831   0.003738
    142      -0.011315   0.032077  -0.013496   0.005958   0.003861   0.001464
    143      -0.009502   0.034040  -0.013833   0.005344   0.003582   0.002108
    144      -0.005982   0.010887  -0.015440   0.001578  -0.000723   0.002955
    145       0.008551  -0.019611   0.025203  -0.003005   0.000193  -0.005396
    146      -0.005053   0.010699  -0.016530   0.001463  -0.000818   0.003621
                144        145        146    
      0       0.000011   0.000009   0.000197
      1      -0.000049  -0.000022   0.000031
      2       0.000007   0.000017  -0.000039
      3      -0.000508  -0.000677   0.002167
      4      -0.000755  -0.000818   0.026985
      5       0.000660   0.000863   0.066116
      6      -0.000022  -0.000085  -0.000646
      7      -0.000084  -0.000238   0.000390
      8       0.000027   0.000103   0.000374
      9       0.000006   0.000014  -0.000019
     10      -0.000000  -0.000012  -0.000239
     11      -0.000011  -0.000007  -0.000616
     12       0.000056   0.000037   0.000354
     13      -0.000003  -0.000018  -0.000433
     14       0.000026   0.000007  -0.000277
     15      -0.000116   0.000001  -0.000166
     16      -0.000224   0.000009  -0.000056
     17      -0.000211  -0.000020  -0.000046
     18       0.000010   0.000011  -0.000053
     19       0.000027   0.000016   0.000009
     20       0.000070   0.000026   0.000078
     21       0.000043  -0.000015  -0.000077
     22       0.000005  -0.000007  -0.000142
     23       0.000092   0.000018   0.000074
     24      -0.000156  -0.000004   0.000055
     25      -0.000055  -0.000000  -0.000010
     26      -0.000040  -0.000004   0.000026
     27       0.000052   0.000892   0.000766
     28       0.000029   0.000445  -0.000025
     29      -0.000003  -0.000637   0.000155
     30      -0.000776  -0.000005   0.000105
     31       0.000020  -0.000002  -0.000068
     32       0.000248  -0.000005   0.000131
     33      -0.000080   0.008163  -0.000538
     34       0.000046  -0.002100  -0.000105
     35      -0.000161   0.011601  -0.000281
     36       0.000006   0.000764  -0.000413
     37       0.000006   0.000191   0.000012
     38      -0.000007  -0.000023  -0.000024
     39      -0.002351  -0.000006  -0.000105
     40      -0.002260  -0.000014   0.000040
     41       0.012331   0.000057   0.000127
     42      -0.009275  -0.000029   0.000438
     43       0.001724   0.000004   0.000075
     44      -0.003968  -0.000019  -0.000175
     45       0.000284  -0.040243   0.000302
     46       0.000183  -0.026882  -0.000029
     47      -0.000341   0.051621   0.000043
     48      -0.000077  -0.003586  -0.000093
     49       0.000050   0.004203   0.000000
     50      -0.000179  -0.013861   0.000094
     51      -0.000279  -0.050843  -0.000060
     52      -0.000057  -0.007257   0.000028
     53      -0.000026  -0.011830  -0.000203
     54       0.037877   0.000136  -0.000076
     55      -0.010342  -0.000037   0.000034
     56       0.025142   0.000075  -0.000094
     57      -0.001767  -0.000003   0.000008
     58       0.005083   0.000004  -0.000253
     59      -0.032008  -0.000045   0.000106
     60       0.059950   0.000090  -0.000386
     61      -0.002137  -0.000005   0.000042
     62      -0.033750  -0.000053  -0.000136
     63       0.000313   0.001247   0.001874
     64       0.000518   0.001986   0.000082
     65      -0.000284  -0.001144  -0.000812
     66      -0.000012  -0.000024  -0.001715
     67       0.000010   0.000061   0.001025
     68       0.000112   0.000196   0.002559
     69      -0.000049  -0.000214   0.001716
     70      -0.000047   0.000199  -0.000974
     71       0.000007  -0.000072   0.000228
     72      -0.000075  -0.000233   0.000333
     73       0.000076   0.000368  -0.000538
     74       0.000028   0.000068  -0.001392
     75      -0.000595  -0.000253   0.000085
     76      -0.000113  -0.000101   0.000050
     77      -0.000363  -0.000213   0.000201
     78       0.000136   0.000166   0.000825
     79      -0.000146  -0.000127  -0.000311
     80       0.000061   0.000041  -0.000061
     81       0.001196   0.000008   0.000767
     82       0.003126   0.000016   0.001192
     83       0.002295   0.000031   0.000815
     84      -0.000220  -0.000095  -0.000153
     85       0.000195   0.000073   0.000270
     86      -0.000470  -0.000222  -0.000429
     87       0.000325   0.000083   0.000465
     88      -0.000309  -0.000134  -0.000467
     89      -0.000181  -0.000072  -0.000102
     90      -0.000690  -0.000052  -0.000129
     91       0.000319   0.000043   0.000164
     92      -0.000937  -0.000095  -0.000376
     93       0.000401   0.000169   0.000838
     94      -0.000271  -0.000005   0.000459
     95      -0.000248  -0.000066  -0.000281
     96       0.002518   0.000043  -0.000391
     97      -0.000287   0.000000   0.000060
     98       0.001344   0.000026  -0.000186
     99       0.000556   0.000004  -0.000100
    100       0.000902   0.000009   0.000308
    101      -0.000865   0.000008   0.000069
    102       0.000918  -0.058260   0.000954
    103      -0.000606   0.029326   0.000614
    104       0.001983  -0.124942   0.000567
    105       0.006089   0.000031  -0.000070
    106       0.025986   0.000122  -0.000242
    107      -0.128762  -0.000584   0.000363
    108       0.090767   0.000338  -0.001484
    109      -0.019119  -0.000065   0.000242
    110       0.052428   0.000201  -0.000804
    111      -0.003237   0.456137  -0.000987
    112      -0.002086   0.297263  -0.000306
    113       0.003957  -0.564720   0.000853
    114       0.003133   0.559214   0.000212
    115       0.000499   0.086310   0.000233
    116       0.000582   0.110755   0.000084
    117      -0.425717  -0.001500   0.001201
    118       0.111625   0.000418  -0.000499
    119      -0.257292  -0.000877   0.000931
    120      -0.004130  -0.000021   0.000062
    121      -0.051126  -0.000066   0.000952
    122       0.345259   0.000521   0.003351
    123      -0.665917  -0.001092   0.000695
    124       0.025795   0.000037   0.000098
    125       0.370058   0.000620  -0.000316
    126       0.006286   0.006949   0.009484
    127       0.010974   0.011707   0.027259
    128      -0.008858  -0.011175  -0.000640
    129       0.000321  -0.000462  -0.039636
    130       0.000913  -0.000434  -0.396618
    131      -0.000609  -0.000284  -0.913855
    132       0.000840   0.057533  -0.000710
    133      -0.000506  -0.037110   0.000267
    134       0.001938   0.138303  -0.000935
    135      -0.000195  -0.000217   0.000023
    136      -0.000215   0.000039  -0.000042
    137      -0.000164  -0.000190   0.000010
    138      -0.000414  -0.000422   0.000313
    139       0.001190   0.000438   0.000314
    140       0.001038   0.000584   0.000079
    141       0.003293   0.000998   0.000403
    142       0.001275   0.000362  -0.000231
    143       0.001310   0.000924   0.000020
    144      -0.000363   0.000976  -0.000731
    145       0.000152  -0.001767   0.000389
    146      -0.000377   0.001300  -0.000578




--------------------------
THERMOCHEMISTRY AT 298.15K
--------------------------

Temperature         ... 298.15 K
Pressure            ... 1.00 atm
Total Mass          ... 295.45 AMU

Throughout the following assumptions are being made:
  (1) The electronic state is orbitally nondegenerate
  (2) There are no thermally accessible electronically excited states
  (3) Hindered rotations indicated by low frequency modes are not
      treated as such but are treated as vibrations and this may
      cause some error
  (4) All equations used are the standard statistical mechanics
      equations for an ideal gas
  (5) All vibrations are strictly harmonic

freq.      35.05  E(vib)   ...       0.54 
freq.      45.92  E(vib)   ...       0.53 
freq.      53.39  E(vib)   ...       0.52 
freq.      76.87  E(vib)   ...       0.49 
freq.      86.43  E(vib)   ...       0.48 
freq.     102.16  E(vib)   ...       0.46 
freq.     121.06  E(vib)   ...       0.44 
freq.     131.16  E(vib)   ...       0.42 
freq.     155.45  E(vib)   ...       0.40 
freq.     178.69  E(vib)   ...       0.37 
freq.     188.75  E(vib)   ...       0.36 
freq.     213.61  E(vib)   ...       0.34 
freq.     242.26  E(vib)   ...       0.31 
freq.     258.76  E(vib)   ...       0.30 
freq.     280.44  E(vib)   ...       0.28 
freq.     303.08  E(vib)   ...       0.26 
freq.     343.17  E(vib)   ...       0.23 
freq.     363.86  E(vib)   ...       0.22 
freq.     392.86  E(vib)   ...       0.20 
freq.     405.44  E(vib)   ...       0.19 
freq.     427.75  E(vib)   ...       0.18 
freq.     436.36  E(vib)   ...       0.17 
freq.     444.54  E(vib)   ...       0.17 
freq.     472.94  E(vib)   ...       0.15 
freq.     499.24  E(vib)   ...       0.14 
freq.     511.05  E(vib)   ...       0.14 
freq.     518.54  E(vib)   ...       0.13 
freq.     533.02  E(vib)   ...       0.13 
freq.     562.75  E(vib)   ...       0.11 
freq.     616.98  E(vib)   ...       0.09 
freq.     625.52  E(vib)   ...       0.09 
freq.     638.28  E(vib)   ...       0.09 
freq.     726.14  E(vib)   ...       0.06 
freq.     734.86  E(vib)   ...       0.06 
freq.     736.89  E(vib)   ...       0.06 
freq.     775.71  E(vib)   ...       0.05 
freq.     786.42  E(vib)   ...       0.05 
freq.     791.41  E(vib)   ...       0.05 
freq.     793.82  E(vib)   ...       0.05 
freq.     809.70  E(vib)   ...       0.05 
freq.     829.46  E(vib)   ...       0.04 
freq.     845.18  E(vib)   ...       0.04 
freq.     861.04  E(vib)   ...       0.04 
freq.     880.23  E(vib)   ...       0.04 
freq.     897.39  E(vib)   ...       0.03 
freq.     902.37  E(vib)   ...       0.03 
freq.     920.22  E(vib)   ...       0.03 
freq.     942.35  E(vib)   ...       0.03 
freq.     950.67  E(vib)   ...       0.03 
freq.     976.64  E(vib)   ...       0.03 
freq.     987.41  E(vib)   ...       0.02 
freq.     993.22  E(vib)   ...       0.02 
freq.    1015.34  E(vib)   ...       0.02 
freq.    1017.94  E(vib)   ...       0.02 
freq.    1023.54  E(vib)   ...       0.02 
freq.    1026.72  E(vib)   ...       0.02 
freq.    1031.42  E(vib)   ...       0.02 
freq.    1037.74  E(vib)   ...       0.02 
freq.    1043.89  E(vib)   ...       0.02 
freq.    1046.67  E(vib)   ...       0.02 
freq.    1066.87  E(vib)   ...       0.02 
freq.    1068.86  E(vib)   ...       0.02 
freq.    1069.79  E(vib)   ...       0.02 
freq.    1092.77  E(vib)   ...       0.02 
freq.    1115.06  E(vib)   ...       0.01 
freq.    1129.12  E(vib)   ...       0.01 
freq.    1134.20  E(vib)   ...       0.01 
freq.    1150.08  E(vib)   ...       0.01 
freq.    1170.86  E(vib)   ...       0.01 
freq.    1184.33  E(vib)   ...       0.01 
freq.    1190.83  E(vib)   ...       0.01 
freq.    1201.85  E(vib)   ...       0.01 
freq.    1207.98  E(vib)   ...       0.01 
freq.    1213.88  E(vib)   ...       0.01 
freq.    1217.87  E(vib)   ...       0.01 
freq.    1233.25  E(vib)   ...       0.01 
freq.    1243.11  E(vib)   ...       0.01 
freq.    1263.61  E(vib)   ...       0.01 
freq.    1266.16  E(vib)   ...       0.01 
freq.    1276.66  E(vib)   ...       0.01 
freq.    1290.74  E(vib)   ...       0.01 
freq.    1302.70  E(vib)   ...       0.01 
freq.    1315.23  E(vib)   ...       0.01 
freq.    1325.00  E(vib)   ...       0.01 
freq.    1329.19  E(vib)   ...       0.01 
freq.    1343.60  E(vib)   ...       0.01 
freq.    1356.04  E(vib)   ...       0.01 
freq.    1366.50  E(vib)   ...       0.01 
freq.    1378.15  E(vib)   ...       0.01 
freq.    1382.94  E(vib)   ...       0.01 
freq.    1396.01  E(vib)   ...       0.00 
freq.    1400.59  E(vib)   ...       0.00 
freq.    1411.88  E(vib)   ...       0.00 
freq.    1421.81  E(vib)   ...       0.00 
freq.    1436.63  E(vib)   ...       0.00 
freq.    1438.01  E(vib)   ...       0.00 
freq.    1446.32  E(vib)   ...       0.00 
freq.    1486.51  E(vib)   ...       0.00 
freq.    1495.93  E(vib)   ...       0.00 
freq.    1503.49  E(vib)   ...       0.00 
freq.    1506.25  E(vib)   ...       0.00 
freq.    1508.18  E(vib)   ...       0.00 
freq.    1509.58  E(vib)   ...       0.00 
freq.    1518.43  E(vib)   ...       0.00 
freq.    1519.86  E(vib)   ...       0.00 
freq.    1523.38  E(vib)   ...       0.00 
freq.    1542.76  E(vib)   ...       0.00 
freq.    1553.72  E(vib)   ...       0.00 
freq.    1564.25  E(vib)   ...       0.00 
freq.    1666.46  E(vib)   ...       0.00 
freq.    1671.57  E(vib)   ...       0.00 
freq.    1678.46  E(vib)   ...       0.00 
freq.    1689.31  E(vib)   ...       0.00 
freq.    1707.90  E(vib)   ...       0.00 
freq.    3012.93  E(vib)   ...       0.00 
freq.    3014.30  E(vib)   ...       0.00 
freq.    3018.55  E(vib)   ...       0.00 
freq.    3078.24  E(vib)   ...       0.00 
freq.    3079.10  E(vib)   ...       0.00 
freq.    3091.60  E(vib)   ...       0.00 
freq.    3097.05  E(vib)   ...       0.00 
freq.    3104.24  E(vib)   ...       0.00 
freq.    3132.12  E(vib)   ...       0.00 
freq.    3133.22  E(vib)   ...       0.00 
freq.    3134.51  E(vib)   ...       0.00 
freq.    3140.39  E(vib)   ...       0.00 
freq.    3144.01  E(vib)   ...       0.00 
freq.    3149.19  E(vib)   ...       0.00 
freq.    3175.93  E(vib)   ...       0.00 
freq.    3178.69  E(vib)   ...       0.00 
freq.    3189.03  E(vib)   ...       0.00 
freq.    3190.83  E(vib)   ...       0.00 
freq.    3192.04  E(vib)   ...       0.00 
freq.    3200.48  E(vib)   ...       0.00 
freq.    3204.89  E(vib)   ...       0.00 
freq.    3205.66  E(vib)   ...       0.00 
freq.    3212.79  E(vib)   ...       0.00 
freq.    3222.79  E(vib)   ...       0.00 
freq.    3226.48  E(vib)   ...       0.00 
freq.    3236.57  E(vib)   ...       0.00 
freq.    3450.15  E(vib)   ...       0.00 

------------
INNER ENERGY
------------

The inner energy is: U= E(el) + E(ZPE) + E(vib) + E(rot) + E(trans)
    E(el)   - is the total energy from the electronic structure calculation
              = E(kin-el) + E(nuc-el) + E(el-el) + E(nuc-nuc)
    E(ZPE)  - the the zero temperature vibrational energy from the frequency calculation
    E(vib)  - the the finite temperature correction to E(ZPE) due to population
              of excited vibrational states
    E(rot)  - is the rotational thermal energy
    E(trans)- is the translational thermal energy

Summary of contributions to the inner energy U:
Electronic energy                ...   -888.46708621 Eh
Zero point energy                ...      0.44276196 Eh     277.84 kcal/mol
Thermal vibrational correction   ...      0.01642536 Eh      10.31 kcal/mol
Thermal rotational correction    ...      0.00141627 Eh       0.89 kcal/mol
Thermal translational correction ...      0.00141627 Eh       0.89 kcal/mol
-----------------------------------------------------------------------
Total thermal energy                   -888.00506635 Eh


Summary of corrections to the electronic energy:
(perhaps to be used in another calculation)
Total thermal correction                  0.01925790 Eh      12.08 kcal/mol
Non-thermal (ZPE) correction              0.44276196 Eh     277.84 kcal/mol
-----------------------------------------------------------------------
Total correction                          0.46201986 Eh     289.92 kcal/mol


--------
ENTHALPY
--------

The enthalpy is H = U + kB*T
                kB is Boltzmann's constant
Total free energy                 ...   -888.00506635 Eh 
Thermal Enthalpy correction       ...      0.00094421 Eh       0.59 kcal/mol
-----------------------------------------------------------------------
Total Enthalpy                    ...   -888.00412214 Eh


Note: Only C1 symmetry has been detected, increase convergence thresholds 
      if your molecule has a higher symmetry. Symmetry factor of 1.0 is   
      used for the rotational entropy correction. 
 

Note: Rotational entropy computed according to Herzberg 
Infrared and Raman Spectra, Chapter V,1, Van Nostrand Reinhold, 1945 
Point Group:  C1, Symmetry Number:   1  
Rotational constants in cm-1:     0.014078     0.008788     0.007323 

Vibrational entropy computed according to the QRRHO of S. Grimme
Chem.Eur.J. 2012 18 9955


-------
ENTROPY
-------

The entropy contributions are T*S = T*(S(el)+S(vib)+S(rot)+S(trans))
     S(el)   - electronic entropy
     S(vib)  - vibrational entropy
     S(rot)  - rotational entropy
     S(trans)- translational entropy
The entropies will be listed as multiplied by the temperature to get
units of energy

Electronic entropy                ...      0.00000000 Eh      0.00 kcal/mol
Vibrational entropy               ...      0.02832907 Eh     17.78 kcal/mol
Rotational entropy                ...      0.01607964 Eh     10.09 kcal/mol
Translational entropy             ...      0.02040553 Eh     12.80 kcal/mol
-----------------------------------------------------------------------
Final entropy term                ...      0.06481424 Eh     40.67 kcal/mol

In case the symmetry of your molecule has not been determined correctly
or in case you have a reason to use a different symmetry number we print 
out the resulting rotational entropy values for sn=1,12 :
 --------------------------------------------------------
|  sn= 1 | S(rot)=       0.01607964 Eh     10.09 kcal/mol|
|  sn= 2 | S(rot)=       0.01542518 Eh      9.68 kcal/mol|
|  sn= 3 | S(rot)=       0.01504235 Eh      9.44 kcal/mol|
|  sn= 4 | S(rot)=       0.01477073 Eh      9.27 kcal/mol|
|  sn= 5 | S(rot)=       0.01456004 Eh      9.14 kcal/mol|
|  sn= 6 | S(rot)=       0.01438789 Eh      9.03 kcal/mol|
|  sn= 7 | S(rot)=       0.01424235 Eh      8.94 kcal/mol|
|  sn= 8 | S(rot)=       0.01411627 Eh      8.86 kcal/mol|
|  sn= 9 | S(rot)=       0.01400506 Eh      8.79 kcal/mol|
|  sn=10 | S(rot)=       0.01390558 Eh      8.73 kcal/mol|
|  sn=11 | S(rot)=       0.01381559 Eh      8.67 kcal/mol|
|  sn=12 | S(rot)=       0.01373344 Eh      8.62 kcal/mol|
 --------------------------------------------------------


-------------------
GIBBS FREE ENERGY
-------------------

The Gibbs free energy is G = H - T*S

Total enthalpy                    ...   -888.00412214 Eh 
Total entropy correction          ...     -0.06481424 Eh    -40.67 kcal/mol
-----------------------------------------------------------------------
Final Gibbs free energy         ...   -888.06893638 Eh

For completeness - the Gibbs free energy minus the electronic energy
G-E(el)                           ...      0.39814983 Eh    249.84 kcal/mol


Timings for individual modules:

Sum of individual times         ...    30833.568 sec (= 513.893 min)
GTO integral calculation        ...       45.894 sec (=   0.765 min)   0.1 %
SCF iterations                  ...    15902.400 sec (= 265.040 min)  51.6 %
SCF Gradient evaluation         ...     4442.588 sec (=  74.043 min)  14.4 %
Geometry relaxation             ...        3.828 sec (=   0.064 min)   0.0 %
Analytical frequency calculation...     8746.410 sec (= 145.773 min)  28.4 %
CHELPG charge generation        ...     1692.448 sec (=  28.207 min)   5.5 %
                             ****ORCA TERMINATED NORMALLY****
TOTAL RUN TIME: 0 days 8 hours 34 minutes 13 seconds 289 msec
