
Lmod is automatically replacing "intel/2020.1.217" with "gcc/10.3.0".


The following have been reloaded with a version change:
  1) gcccore/.9.3.0 => gcccore/.10.3.0        3) openmpi/4.0.3 => openmpi/4.1.1
  2) libfabric/1.10.1 => libfabric/1.12.1     4) ucx/1.8.0 => ucx/1.9.0

To execute ORCA, run: 
   ${EBROOTORCA}/orca orca.inp > orca.out
cp: cannot stat '/project/6006388/cieritan/Fentanyl_analogs/Despropionyl_ortho-Methylfentanyl/exoN-Prot/DFT/*.hess': No such file or directory
cp: cannot stat '/project/6006388/cieritan/Fentanyl_analogs/Despropionyl_ortho-Methylfentanyl/exoN-Prot/DFT/*.gbw': No such file or directory

                                 *****************
                                 * O   R   C   A *
                                 *****************

                                            #,                                       
                                            ###                                      
                                            ####                                     
                                            #####                                    
                                            ######                                   
                                           ########,                                 
                                     ,,################,,,,,                         
                               ,,#################################,,                 
                          ,,##########################################,,             
                       ,#########################################, ''#####,          
                    ,#############################################,,   '####,        
                  ,##################################################,,,,####,       
                ,###########''''           ''''###############################       
              ,#####''   ,,,,##########,,,,          '''####'''          '####       
            ,##' ,,,,###########################,,,                        '##       
           ' ,,###''''                  '''############,,,                           
         ,,##''                                '''############,,,,        ,,,,,,###''
      ,#''                                            '''#######################'''  
     '                                                          ''''####''''         
             ,#######,   #######,   ,#######,      ##                                
            ,#'     '#,  ##    ##  ,#'     '#,    #''#        ######   ,####,        
            ##       ##  ##   ,#'  ##            #'  '#       #        #'  '#        
            ##       ##  #######   ##           ,######,      #####,   #    #        
            '#,     ,#'  ##    ##  '#,     ,#' ,#      #,         ##   #,  ,#        
             '#######'   ##     ##  '#######'  #'      '#     #####' # '####'        



                  #######################################################
                  #                        -***-                        #
                  #          Department of theory and spectroscopy      #
                  #    Directorship and core code : Frank Neese         #
                  #        Max Planck Institute fuer Kohlenforschung    #
                  #                Kaiser Wilhelm Platz 1               #
                  #                 D-45470 Muelheim/Ruhr               #
                  #                      Germany                        #
                  #                                                     #
                  #                  All rights reserved                #
                  #                        -***-                        #
                  #######################################################


                         Program Version 5.0.4 -  RELEASE  -


 With contributions from (in alphabetic order):
   Daniel Aravena         : Magnetic Suceptibility
   Michael Atanasov       : Ab Initio Ligand Field Theory (pilot matlab implementation)
   Alexander A. Auer      : GIAO ZORA, VPT2 properties, NMR spectrum
   Ute Becker             : Parallelization
   Giovanni Bistoni       : ED, misc. LED, open-shell LED, HFLD
   Martin Brehm           : Molecular dynamics
   Dmytro Bykov           : SCF Hessian
   Vijay G. Chilkuri      : MRCI spin determinant printing, contributions to CSF-ICE
   Dipayan Datta          : RHF DLPNO-CCSD density
   Achintya Kumar Dutta   : EOM-CC, STEOM-CC
   Dmitry Ganyushin       : Spin-Orbit,Spin-Spin,Magnetic field MRCI
   Miquel Garcia          : C-PCM and meta-GGA Hessian, CC/C-PCM, Gaussian charge scheme
   Yang Guo               : DLPNO-NEVPT2, F12-NEVPT2, CIM, IAO-localization
   Andreas Hansen         : Spin unrestricted coupled pair/coupled cluster methods
   Benjamin Helmich-Paris : MC-RPA, TRAH-SCF, COSX integrals
   Lee Huntington         : MR-EOM, pCC
   Robert Izsak           : Overlap fitted RIJCOSX, COSX-SCS-MP3, EOM
   Marcus Kettner         : VPT2
   Christian Kollmar      : KDIIS, OOCD, Brueckner-CCSD(T), CCSD density, CASPT2, CASPT2-K
   Simone Kossmann        : Meta GGA functionals, TD-DFT gradient, OOMP2, MP2 Hessian
   Martin Krupicka        : Initial AUTO-CI
   Lucas Lang             : DCDCAS
   Marvin Lechner         : AUTO-CI (C++ implementation), FIC-MRCC
   Dagmar Lenk            : GEPOL surface, SMD
   Dimitrios Liakos       : Extrapolation schemes; Compound Job, initial MDCI parallelization
   Dimitrios Manganas     : Further ROCIS development; embedding schemes
   Dimitrios Pantazis     : SARC Basis sets
   Anastasios Papadopoulos: AUTO-CI, single reference methods and gradients
   Taras Petrenko         : DFT Hessian,TD-DFT gradient, ASA, ECA, R-Raman, ABS, FL, XAS/XES, NRVS
   Peter Pinski           : DLPNO-MP2, DLPNO-MP2 Gradient
   Christoph Reimann      : Effective Core Potentials
   Marius Retegan         : Local ZFS, SOC
   Christoph Riplinger    : Optimizer, TS searches, QM/MM, DLPNO-CCSD(T), (RO)-DLPNO pert. Triples
   Tobias Risthaus        : Range-separated hybrids, TD-DFT gradient, RPA, STAB
   Michael Roemelt        : Original ROCIS implementation
   Masaaki Saitow         : Open-shell DLPNO-CCSD energy and density
   Barbara Sandhoefer     : DKH picture change effects
   Avijit Sen             : IP-ROCIS
   Kantharuban Sivalingam : CASSCF convergence, NEVPT2, FIC-MRCI
   Bernardo de Souza      : ESD, SOC TD-DFT
   Georgi Stoychev        : AutoAux, RI-MP2 NMR, DLPNO-MP2 response
   Willem Van den Heuvel  : Paramagnetic NMR
   Boris Wezisla          : Elementary symmetry handling
   Frank Wennmohs         : Technical directorship


 We gratefully acknowledge several colleagues who have allowed us to
 interface, adapt or use parts of their codes:
   Stefan Grimme, W. Hujo, H. Kruse, P. Pracht,  : VdW corrections, initial TS optimization,
                  C. Bannwarth, S. Ehlert          DFT functionals, gCP, sTDA/sTD-DF
   Ed Valeev, F. Pavosevic, A. Kumar             : LibInt (2-el integral package), F12 methods
   Garnet Chan, S. Sharma, J. Yang, R. Olivares  : DMRG
   Ulf Ekstrom                                   : XCFun DFT Library
   Mihaly Kallay                                 : mrcc  (arbitrary order and MRCC methods)
   Jiri Pittner, Ondrej Demel                    : Mk-CCSD
   Frank Weinhold                                : gennbo (NPA and NBO analysis)
   Christopher J. Cramer and Donald G. Truhlar   : smd solvation model
   Lars Goerigk                                  : TD-DFT with DH, B97 family of functionals
   V. Asgeirsson, H. Jonsson                     : NEB implementation
   FAccTs GmbH                                   : IRC, NEB, NEB-TS, DLPNO-Multilevel, CI-OPT
                                                   MM, QMMM, 2- and 3-layer-ONIOM, Crystal-QMMM,
                                                   LR-CPCM, SF, NACMEs, symmetry and pop. for TD-DFT,
                                                   nearIR, NL-DFT gradient (VV10), updates on ESD,
                                                   ML-optimized integration grids
   S Lehtola, MJT Oliveira, MAL Marques          : LibXC Library
   Liviu Ungur et al                             : ANISO software


 Your calculation uses the libint2 library for the computation of 2-el integrals
 For citations please refer to: http://libint.valeyev.net

 Your ORCA version has been built with support for libXC version: 5.1.0
 For citations please refer to: https://tddft.org/programs/libxc/

 This ORCA versions uses:
   CBLAS   interface :  Fast vector & matrix operations
   LAPACKE interface :  Fast linear algebra routines
   SCALAPACK package :  Parallel linear algebra routines
   Shared memory     :  Shared parallel matrices
   BLAS/LAPACK       :  OpenBLAS 0.3.15  USE64BITINT DYNAMIC_ARCH NO_AFFINITY Haswell SINGLE_THREADED
        Core in use  :  Haswell
   Copyright (c) 2011-2014, The OpenBLAS Project


Your calculation utilizes the atom-pairwise dispersion correction
with the Becke-Johnson damping scheme (D3BJ)
Cite in your paper:
S.Grimme, S.Ehrlich, L.Goerigk, J Comput Chem, (2011), 32, 1456–1465 
S.Grimme, J.Antony, S.Ehrlich and H.Krieg, J.Chem.Phys., 132, (2010), 154104 
   

================================================================================

----- Orbital basis set information -----
Your calculation utilizes the basis: def2-TZVP
   F. Weigend and R. Ahlrichs, Phys. Chem. Chem. Phys. 7, 3297 (2005).

----- AuxJ basis set information -----
Your calculation utilizes the auxiliary basis: def2/J
   F. Weigend, Phys. Chem. Chem. Phys. 8, 1057 (2006).

================================================================================
                                        WARNINGS
                       Please study these warnings very carefully!
================================================================================


WARNING: Geometry Optimization
  ===> : Switching off AutoStart
         For restart on a previous wavefunction, please use MOREAD

INFO   : the flag for use of the SHARK integral package has been found!

================================================================================
                                       INPUT FILE
================================================================================
NAME = desprop_oMe-Fentanyl_exoNProt_6.inp
|  1> ! wB97X-D3BJ TightOpt Freq def2-TZVP def2/J RIJCOSX TightSCF defgrid3 CHELPG
|  2> %maxcore 3400
|  3> 
|  4> %pal nprocs 8 
|  5> end
|  6> 
|  7> %chelpg
|  8> grid 0.1
|  9> rmax 3.0
| 10> end
| 11> 
| 12> *xyz 1 1
| 13> N          -2.33519600       0.44324500      -0.47685800
| 14> N           0.10330000       0.44848400       0.64861500
| 15> C          -0.69913500       1.63665800       1.14817600
| 16> C          -1.09068500       2.51466900      -0.03612500
| 17> C          -1.94551800       1.09950600       1.84862800
| 18> C          -1.96949500       1.73769200      -1.04545600
| 19> C          -2.99333300       0.64351600       0.81287500
| 20> C          -3.03265500      -0.44463900      -1.39878300
| 21> C          -3.05924100      -1.89251400      -0.88112900
| 22> C           1.37577100       0.76993700       0.00265900
| 23> C          -1.73166300      -2.29325000      -0.28206300
| 24> C           1.48032500       0.67195100      -1.37038700
| 25> C           2.43852500       1.17380700       0.79579900
| 26> C          -0.58944500      -2.38506500      -1.07971800
| 27> C          -1.60163500      -2.51813700       1.08642000
| 28> C           2.69507400       1.00041500      -1.96221100
| 29> C           3.65650400       1.49978700       0.20846200
| 30> C           3.76455300       1.40934200      -1.18152000
| 31> C           0.65056100      -2.66854600      -0.52268500
| 32> C          -0.36202500      -2.80733200       1.65132000
| 33> C           0.77141300      -2.87283200       0.84889400
| 34> H          -0.05384600       2.17900000       1.83950700
| 35> H          -0.20438100       2.92036800      -0.52555600
| 36> H          -1.63724500       3.36461800       0.37716500
| 37> H          -2.34865100       1.89067600       2.48286400
| 38> H          -1.67204800       0.27407600       2.51252100
| 39> H          -2.85939100       2.32759000      -1.30805500
| 40> H          -1.41829700       1.56075900      -1.97160100
| 41> H          -3.45323600      -0.28766400       1.13616200
| 42> H          -3.79955000       1.38574600       0.72006600
| 43> H          -4.05619000      -0.10132100      -1.60805400
| 44> H          -2.48507100      -0.41049700      -2.34477300
| 45> H          -3.31652000      -2.54802300      -1.71702300
| 46> H          -3.84867200      -2.02085200      -0.13772700
| 47> H           0.64220000       0.33168400      -1.96699900
| 48> H          -0.67348100      -2.23841100      -2.15275000
| 49> H          -2.48218800      -2.48134900       1.72040300
| 50> H           2.80459200       0.93068200      -3.03809400
| 51> H           4.70777600       1.65963200      -1.65559400
| 52> H           1.52540300      -2.73815600      -1.15938500
| 53> H          -0.28664700      -3.00034000       2.71634100
| 54> H           1.73677400      -3.10872800       1.28239100
| 55> H           0.25726600      -0.21782300       1.40818000
| 56> H          -0.57245200      -0.01848500       0.00051800
| 57> C           2.28025667       1.25482389       2.32550074
| 58> H           3.22502619       1.06897626       2.79216038
| 59> H           1.93402247       2.23015010       2.59708987
| 60> H           1.57175573       0.52163621       2.65009623
| 61> H           4.48826291       1.81141405       0.80509061
| 62> *
| 63> 
| 64> 
| 65>                          ****END OF INPUT****
================================================================================

                       *****************************
                       * Geometry Optimization Run *
                       *****************************

Geometry optimization settings:
Update method            Update   .... BFGS
Choice of coordinates    CoordSys .... Z-matrix Internals
Initial Hessian          InHess   .... Almoef's Model

Convergence Tolerances:
Energy Change            TolE     ....  1.0000e-06 Eh
Max. Gradient            TolMAXG  ....  1.0000e-04 Eh/bohr
RMS Gradient             TolRMSG  ....  3.0000e-05 Eh/bohr
Max. Displacement        TolMAXD  ....  1.0000e-03 bohr
RMS Displacement         TolRMSD  ....  6.0000e-04 bohr
Strict Convergence                ....  False
------------------------------------------------------------------------------
                        ORCA OPTIMIZATION COORDINATE SETUP
------------------------------------------------------------------------------

The optimization will be done in new redundant internal coordinates
Making redundant internal coordinates   ...  (new redundants) done
Evaluating the initial hessian          ...  (Almloef) done
Evaluating the coordinates              ...  done
Calculating the B-matrix                .... done
Calculating the G-matrix                .... done
Diagonalizing the G-matrix              .... done
Small eigenvalue found = 2.187e-03
Small eigenvalue found = 3.942e-03
Small eigenvalue found = 8.797e-03
Small eigenvalue found = 1.254e-02
Small eigenvalue found = 1.855e-02
Small eigenvalue found = 2.410e-02
The first mode is                       ....  142
The number of degrees of freedom        ....  141

    -----------------------------------------------------------------
                    Redundant Internal Coordinates


    -----------------------------------------------------------------
         Definition                    Initial Value    Approx d2E/dq
    -----------------------------------------------------------------
      1. B(C   2,N   1)                  1.5183         0.349292   
      2. B(C   3,C   2)                  1.5254         0.379969   
      3. B(C   4,C   2)                  1.5273         0.377303   
      4. B(C   5,C   3)                  1.5475         0.350317   
      5. B(C   5,N   0)                  1.4604         0.432146   
      6. B(C   6,N   0)                  1.4617         0.429962   
      7. B(C   6,C   4)                  1.5423         0.357097   
      8. B(C   7,N   0)                  1.4576         0.436466   
      9. B(C   8,C   7)                  1.5379         0.362942   
     10. B(C   9,N   1)                  1.4628         0.428285   
     11. B(C  10,C   8)                  1.5106         0.401161   
     12. B(C  11,C   9)                  1.3805         0.646980   
     13. B(C  12,C   9)                  1.3862         0.633514   
     14. B(C  13,C  10)                  1.3962         0.610750   
     15. B(C  14,C  10)                  1.3929         0.618129   
     16. B(C  15,C  11)                  1.3906         0.623428   
     17. B(C  16,C  12)                  1.3909         0.622654   
     18. B(C  17,C  16)                  1.3971         0.608698   
     19. B(C  17,C  15)                  1.3858         0.634475   
     20. B(C  18,C  13)                  1.3886         0.627975   
     21. B(C  19,C  14)                  1.3926         0.618821   
     22. B(C  20,C  19)                  1.3903         0.624170   
     23. B(C  20,C  18)                  1.3920         0.620302   
     24. B(H  21,C   2)                  1.0902         0.359875   
     25. B(H  22,C   3)                  1.0907         0.359149   
     26. B(H  23,C   3)                  1.0918         0.357773   
     27. B(H  24,C   4)                  1.0912         0.358514   
     28. B(H  25,C   4)                  1.0940         0.354824   
     29. B(H  26,C   5)                  1.0995         0.347777   
     30. B(H  27,C   5)                  1.0922         0.357220   
     31. B(H  28,C   6)                  1.0877         0.363137   
     32. B(H  29,C   6)                  1.0998         0.347399   
     33. B(H  30,C   7)                  1.0997         0.347526   
     34. B(H  31,C   7)                  1.0936         0.355399   
     35. B(H  32,C   8)                  1.0930         0.356181   
     36. B(H  33,C   8)                  1.0919         0.357551   
     37. B(H  34,C  11)                  1.0836         0.368672   
     38. B(H  35,C  13)                  1.0863         0.365078   
     39. B(H  36,C  14)                  1.0857         0.365885   
     40. B(H  37,C  15)                  1.0837         0.368547   
     41. B(H  38,C  17)                  1.0849         0.366877   
     42. B(H  39,C  18)                  1.0842         0.367798   
     43. B(H  40,C  19)                  1.0850         0.366789   
     44. B(H  41,C  20)                  1.0842         0.367856   
     45. B(H  42,C  20)                  2.7616         0.000775   
     46. B(H  42,N   1)                  1.0221         0.413954   
     47. B(H  43,N   1)                  1.0463         0.378696   
     48. B(C  44,C  12)                  1.5400         0.360100   
     49. B(H  45,C  44)                  1.0700         0.387554   
     50. B(H  46,C  44)                  1.0700         0.387554   
     51. B(H  47,C  44)                  1.0700         0.387554   
     52. B(H  48,C  16)                  1.0700         0.387554   
     53. A(C   5,N   0,C   7)          114.4239         0.377896   
     54. A(C   6,N   0,C   7)          115.2186         0.377565   
     55. A(C   5,N   0,C   6)          109.5632         0.376916   
     56. A(C   2,N   1,H  43)          102.2240         0.318784   
     57. A(C   2,N   1,H  42)          110.1983         0.323461   
     58. A(C   9,N   1,H  42)          109.9010         0.334534   
     59. A(C   2,N   1,C   9)          115.6625         0.363131   
     60. A(C   9,N   1,H  43)          112.7287         0.329636   
     61. A(H  42,N   1,H  43)          105.4662         0.294814   
     62. A(N   1,C   2,C   4)          107.8767         0.357589   
     63. A(C   3,C   2,C   4)          110.4283         0.365027   
     64. A(N   1,C   2,H  21)          106.5669         0.318827   
     65. A(C   4,C   2,H  21)          111.5416         0.324815   
     66. A(N   1,C   2,C   3)          109.3086         0.358018   
     67. A(C   3,C   2,H  21)          110.9737         0.325191   
     68. A(H  22,C   3,H  23)          106.6839         0.290423   
     69. A(C   2,C   3,H  23)          106.4219         0.324878   
     70. A(C   2,C   3,C   5)          111.2946         0.360430   
     71. A(C   5,C   3,H  23)          110.7007         0.320580   
     72. A(C   2,C   3,H  22)          110.7262         0.325083   
     73. A(C   5,C   3,H  22)          110.8266         0.320781   
     74. A(C   2,C   4,H  24)          108.2433         0.324613   
     75. A(C   6,C   4,H  25)          110.7500         0.321151   
     76. A(C   2,C   4,H  25)          109.8570         0.324062   
     77. A(C   6,C   4,H  24)          110.7143         0.321696   
     78. A(H  24,C   4,H  25)          106.6592         0.289965   
     79. A(C   2,C   4,C   6)          110.5130         0.361175   
     80. A(H  26,C   5,H  27)          107.0293         0.288891   
     81. A(N   0,C   5,H  27)          108.2371         0.329766   
     82. A(C   3,C   5,H  27)          110.3537         0.320499   
     83. A(N   0,C   5,C   3)          109.4695         0.366151   
     84. A(C   3,C   5,H  26)          110.2451         0.319099   
     85. A(N   0,C   5,H  26)          111.4618         0.328311   
     86. A(C   4,C   6,H  29)          110.8045         0.320043   
     87. A(H  28,C   6,H  29)          107.0313         0.289587   
     88. A(N   0,C   6,H  29)          110.3693         0.327977   
     89. A(C   4,C   6,H  28)          109.9236         0.322371   
     90. A(N   0,C   6,H  28)          109.5921         0.330386   
     91. A(N   0,C   6,C   4)          109.0968         0.367037   
     92. A(C   8,C   7,H  31)          109.2220         0.322092   
     93. A(C   8,C   7,H  30)          109.9926         0.320913   
     94. A(N   0,C   7,H  30)          112.0582         0.328811   
     95. A(N   0,C   7,C   8)          111.6451         0.369011   
     96. A(N   0,C   7,H  31)          106.7688         0.330030   
     97. A(H  30,C   7,H  31)          106.9592         0.288628   
     98. A(H  32,C   8,H  33)          106.2605         0.290017   
     99. A(C   7,C   8,H  33)          110.6293         0.322410   
    100. A(C  10,C   8,H  32)          110.5524         0.327552   
    101. A(C   7,C   8,H  32)          108.1370         0.322207   
    102. A(C   7,C   8,C  10)          111.5957         0.365995   
    103. A(C  10,C   8,H  33)          109.5238         0.327760   
    104. A(N   1,C   9,C  12)          118.5723         0.405279   
    105. A(N   1,C   9,C  11)          119.3070         0.406788   
    106. A(C  11,C   9,C  12)          122.1192         0.439113   
    107. A(C  13,C  10,C  14)          118.3138         0.432659   
    108. A(C   8,C  10,C  14)          120.9630         0.401472   
    109. A(C   8,C  10,C  13)          120.6541         0.400623   
    110. A(C   9,C  11,H  34)          120.7518         0.356888   
    111. A(C   9,C  11,C  15)          118.2087         0.437844   
    112. A(C  15,C  11,H  34)          121.0313         0.354649   
    113. A(C   9,C  12,C  16)          119.8679         0.436090   
    114. A(C  16,C  12,C  44)          119.8083         0.394431   
    115. A(C   9,C  12,C  44)          120.3226         0.395629   
    116. A(C  10,C  13,C  18)          120.9835         0.433890   
    117. A(C  18,C  13,H  35)          119.5314         0.354497   
    118. A(C  10,C  13,H  35)          119.4841         0.352831   
    119. A(C  10,C  14,C  19)          121.0070         0.433682   
    120. A(C  19,C  14,H  36)          119.4802         0.353749   
    121. A(C  10,C  14,H  36)          119.5071         0.353682   
    122. A(C  11,C  15,C  17)          120.2709         0.436306   
    123. A(C  17,C  15,H  37)          120.0187         0.355687   
    124. A(C  11,C  15,H  37)          119.7097         0.354629   
    125. A(C  12,C  16,H  48)          120.8966         0.357594   
    126. A(C  12,C  16,C  17)          118.2069         0.432964   
    127. A(C  17,C  16,H  48)          120.8966         0.356219   
    128. A(C  15,C  17,C  16)          121.3249         0.434432   
    129. A(C  16,C  17,H  38)          119.1461         0.352924   
    130. A(C  15,C  17,H  38)          119.5281         0.355413   
    131. A(C  13,C  18,C  20)          120.1826         0.435104   
    132. A(C  20,C  18,H  39)          119.9441         0.354205   
    133. A(C  13,C  18,H  39)          119.8718         0.354944   
    134. A(C  14,C  19,C  20)          120.0894         0.434441   
    135. A(C  20,C  19,H  40)          120.1012         0.354413   
    136. A(C  14,C  19,H  40)          119.7988         0.353896   
    137. A(C  18,C  20,C  19)          119.4078         0.434628   
    138. A(C  19,C  20,H  41)          120.3567         0.354587   
    139. A(C  18,C  20,H  41)          120.2127         0.354214   
    140. A(H  46,C  44,H  47)          109.4712         0.297665   
    141. A(H  45,C  44,H  47)          109.4712         0.297665   
    142. A(C  12,C  44,H  47)          109.4712         0.326284   
    143. A(H  45,C  44,H  46)          109.4713         0.297665   
    144. A(C  12,C  44,H  46)          109.4712         0.326284   
    145. A(C  12,C  44,H  45)          109.4712         0.326284   
    146. D(H  21,C   2,N   1,H  43)    179.9074         0.011249   
    147. D(H  21,C   2,N   1,H  42)     68.1648         0.011249   
    148. D(C   4,C   2,N   1,H  43)     60.0089         0.011249   
    149. D(C   3,C   2,N   1,H  43)    -60.0975         0.011249   
    150. D(C   3,C   2,N   1,H  42)   -171.8401         0.011249   
    151. D(C   4,C   2,N   1,C   9)   -177.1246         0.011249   
    152. D(C   4,C   2,N   1,H  42)    -51.7337         0.011249   
    153. D(H  21,C   2,N   1,C   9)    -57.2261         0.011249   
    154. D(C   3,C   2,N   1,C   9)     62.7690         0.011249   
    155. D(H  22,C   3,C   2,N   1)    -62.8312         0.011507   
    156. D(H  22,C   3,C   2,C   4)    178.6406         0.011507   
    157. D(H  23,C   3,C   2,N   1)   -178.3963         0.011507   
    158. D(H  23,C   3,C   2,H  21)    -61.1462         0.011507   
    159. D(C   5,C   3,C   2,N   1)     60.9131         0.011507   
    160. D(H  23,C   3,C   2,C   4)     63.0755         0.011507   
    161. D(C   5,C   3,C   2,C   4)    -57.6151         0.011507   
    162. D(C   5,C   3,C   2,H  21)    178.1632         0.011507   
    163. D(H  22,C   3,C   2,H  21)     54.4189         0.011507   
    164. D(H  24,C   4,C   2,H  21)     44.9179         0.011354   
    165. D(H  25,C   4,C   2,C   3)    164.9207         0.011354   
    166. D(H  25,C   4,C   2,N   1)     45.5222         0.011354   
    167. D(H  24,C   4,C   2,C   3)    -78.9770         0.011354   
    168. D(H  24,C   4,C   2,N   1)    161.6245         0.011354   
    169. D(H  25,C   4,C   2,H  21)    -71.1844         0.011354   
    170. D(C   6,C   4,C   2,N   1)    -76.9784         0.011354   
    171. D(C   6,C   4,C   2,C   3)     42.4201         0.011354   
    172. D(C   6,C   4,C   2,H  21)    166.3150         0.011354   
    173. D(H  26,C   5,N   0,C   7)     64.6493         0.015922   
    174. D(H  26,C   5,N   0,C   6)    -66.4980         0.015922   
    175. D(C   3,C   5,N   0,C   6)     55.7342         0.015922   
    176. D(C   3,C   5,N   0,C   7)   -173.1185         0.015922   
    177. D(H  27,C   5,C   3,H  23)    131.1245         0.009886   
    178. D(H  27,C   5,C   3,H  22)     12.9534         0.009886   
    179. D(H  27,C   5,C   3,C   2)   -110.7337         0.009886   
    180. D(H  26,C   5,C   3,H  22)   -105.0650         0.009886   
    181. D(H  26,C   5,C   3,H  23)     13.1060         0.009886   
    182. D(H  26,C   5,C   3,C   2)    131.2478         0.009886   
    183. D(N   0,C   5,C   3,H  23)   -109.8511         0.009886   
    184. D(N   0,C   5,C   3,H  22)    131.9779         0.009886   
    185. D(N   0,C   5,C   3,C   2)      8.2907         0.009886   
    186. D(H  27,C   5,N   0,C   7)    -52.7935         0.015922   
    187. D(H  27,C   5,N   0,C   6)    176.0593         0.015922   
    188. D(H  29,C   6,C   4,H  25)    134.9718         0.010242   
    189. D(H  29,C   6,C   4,H  24)     16.8713         0.010242   
    190. D(H  28,C   6,C   4,H  25)     16.8732         0.010242   
    191. D(H  28,C   6,C   4,H  24)   -101.2273         0.010242   
    192. D(H  28,C   6,C   4,C   2)    138.8500         0.010242   
    193. D(N   0,C   6,C   4,H  25)   -103.3209         0.010242   
    194. D(N   0,C   6,C   4,H  24)    138.5785         0.010242   
    195. D(N   0,C   6,C   4,C   2)     18.6559         0.010242   
    196. D(H  29,C   6,N   0,C   7)    -80.4062         0.015761   
    197. D(H  29,C   6,N   0,C   5)     50.3172         0.015761   
    198. D(H  28,C   6,N   0,C   7)     37.2254         0.015761   
    199. D(H  29,C   6,C   4,C   2)   -103.0514         0.010242   
    200. D(H  28,C   6,N   0,C   5)    167.9488         0.015761   
    201. D(C   4,C   6,N   0,C   7)    157.6233         0.015761   
    202. D(C   4,C   6,N   0,C   5)    -71.6533         0.015761   
    203. D(H  31,C   7,N   0,C   5)     45.6728         0.016243   
    204. D(H  30,C   7,N   0,C   6)     57.2211         0.016243   
    205. D(H  30,C   7,N   0,C   5)    -71.1225         0.016243   
    206. D(C   8,C   7,N   0,C   6)    -66.6750         0.016243   
    207. D(H  31,C   7,N   0,C   6)    174.0164         0.016243   
    208. D(C   8,C   7,N   0,C   5)    164.9814         0.016243   
    209. D(H  33,C   8,C   7,H  31)   -161.6185         0.010556   
    210. D(H  33,C   8,C   7,N   0)     80.5360         0.010556   
    211. D(H  32,C   8,C   7,H  31)    -45.6328         0.010556   
    212. D(H  32,C   8,C   7,H  30)     71.4691         0.010556   
    213. D(H  32,C   8,C   7,N   0)   -163.4784         0.010556   
    214. D(C  10,C   8,C   7,H  31)     76.1682         0.010556   
    215. D(H  33,C   8,C   7,H  30)    -44.5165         0.010556   
    216. D(C  10,C   8,C   7,H  30)   -166.7298         0.010556   
    217. D(C  10,C   8,C   7,N   0)    -41.6773         0.010556   
    218. D(C  12,C   9,N   1,H  43)   -168.8743         0.015639   
    219. D(C  12,C   9,N   1,H  42)    -51.5433         0.015639   
    220. D(C  12,C   9,N   1,C   2)     73.9999         0.015639   
    221. D(C  11,C   9,N   1,H  43)     11.5659         0.015639   
    222. D(C  11,C   9,N   1,H  42)    128.8968         0.015639   
    223. D(C  11,C   9,N   1,C   2)   -105.5600         0.015639   
    224. D(C  14,C  10,C   8,H  33)    -11.3840         0.011940   
    225. D(C  14,C  10,C   8,H  32)   -128.1421         0.011940   
    226. D(C  14,C  10,C   8,C   7)    111.4628         0.011940   
    227. D(C  13,C  10,C   8,H  33)    171.6916         0.011940   
    228. D(C  13,C  10,C   8,H  32)     54.9335         0.011940   
    229. D(C  13,C  10,C   8,C   7)    -65.4616         0.011940   
    230. D(H  34,C  11,C   9,C  12)    178.5654         0.029126   
    231. D(H  34,C  11,C   9,N   1)     -1.8909         0.029126   
    232. D(C  15,C  11,C   9,C  12)     -0.4023         0.029126   
    233. D(C  15,C  11,C   9,N   1)    179.1414         0.029126   
    234. D(C  44,C  12,C   9,C  11)   -179.3754         0.027847   
    235. D(C  44,C  12,C   9,N   1)      1.0777         0.027847   
    236. D(C  16,C  12,C   9,C  11)      0.2320         0.027847   
    237. D(C  16,C  12,C   9,N   1)   -179.3148         0.027847   
    238. D(H  35,C  13,C  10,C  14)    178.4424         0.025766   
    239. D(H  35,C  13,C  10,C   8)     -4.5533         0.025766   
    240. D(C  18,C  13,C  10,C  14)     -1.1852         0.025766   
    241. D(C  18,C  13,C  10,C   8)    175.8191         0.025766   
    242. D(H  36,C  14,C  10,C  13)   -178.1582         0.026429   
    243. D(H  36,C  14,C  10,C   8)      4.8472         0.026429   
    244. D(C  19,C  14,C  10,C  13)      0.9657         0.026429   
    245. D(C  19,C  14,C  10,C   8)   -176.0290         0.026429   
    246. D(H  37,C  15,C  11,H  34)      0.9371         0.026913   
    247. D(H  37,C  15,C  11,C   9)    179.9019         0.026913   
    248. D(C  17,C  15,C  11,H  34)   -178.7571         0.026913   
    249. D(C  17,C  15,C  11,C   9)      0.2076         0.026913   
    250. D(H  48,C  16,C  12,C  44)     -0.2567         0.026842   
    251. D(H  48,C  16,C  12,C   9)   -179.8663         0.026842   
    252. D(C  17,C  16,C  12,C  44)    179.7433         0.026842   
    253. D(C  17,C  16,C  12,C   9)      0.1337         0.026842   
    254. D(H  38,C  17,C  16,H  48)      0.0252         0.025583   
    255. D(H  38,C  17,C  16,C  12)   -179.9748         0.025583   
    256. D(C  15,C  17,C  16,H  48)    179.6764         0.025583   
    257. D(C  15,C  17,C  16,C  12)     -0.3236         0.025583   
    258. D(H  38,C  17,C  15,H  37)      0.1097         0.027937   
    259. D(H  38,C  17,C  15,C  11)    179.8030         0.027937   
    260. D(C  16,C  17,C  15,H  37)   -179.5402         0.027937   
    261. D(C  16,C  17,C  15,C  11)      0.1531         0.027937   
    262. D(H  39,C  18,C  13,H  35)      0.2167         0.027331   
    263. D(H  39,C  18,C  13,C  10)    179.8441         0.027331   
    264. D(C  20,C  18,C  13,H  35)   -179.3246         0.027331   
    265. D(C  20,C  18,C  13,C  10)      0.3028         0.027331   
    266. D(H  40,C  19,C  14,H  36)      0.4468         0.026492   
    267. D(H  40,C  19,C  14,C  10)   -178.6773         0.026492   
    268. D(C  20,C  19,C  14,H  36)    179.2603         0.026492   
    269. D(C  20,C  19,C  14,C  10)      0.1362         0.026492   
    270. D(H  41,C  20,C  18,C  13)    179.0898         0.028935   
    271. D(C  19,C  20,C  18,H  39)   -178.7212         0.028935   
    272. D(C  19,C  20,C  18,C  13)      0.8198         0.028935   
    273. D(H  41,C  20,C  19,H  40)     -0.4936         0.029321   
    274. D(H  41,C  20,C  19,C  14)   -179.3036         0.029321   
    275. D(C  18,C  20,C  19,H  40)    177.7739         0.029321   
    276. D(C  18,C  20,C  19,C  14)     -1.0361         0.029321   
    277. D(H  41,C  20,C  18,H  39)     -0.4511         0.028935   
    278. D(H  47,C  44,C  12,C  16)   -149.2154         0.009750   
    279. D(H  47,C  44,C  12,C   9)     30.3923         0.009750   
    280. D(H  46,C  44,C  12,C  16)     90.7846         0.009750   
    281. D(H  46,C  44,C  12,C   9)    -89.6077         0.009750   
    282. D(H  45,C  44,C  12,C  16)    -29.2154         0.009750   
    283. D(H  45,C  44,C  12,C   9)    150.3923         0.009750   
    -----------------------------------------------------------------

Number of atoms                         .... 49
Number of degrees of freedom            .... 283

         *************************************************************
         *                GEOMETRY OPTIMIZATION CYCLE   1            *
         *************************************************************
---------------------------------
CARTESIAN COORDINATES (ANGSTROEM)
---------------------------------
  N     -2.335196    0.443245   -0.476858
  N      0.103300    0.448484    0.648615
  C     -0.699135    1.636658    1.148176
  C     -1.090685    2.514669   -0.036125
  C     -1.945518    1.099506    1.848628
  C     -1.969495    1.737692   -1.045456
  C     -2.993333    0.643516    0.812875
  C     -3.032655   -0.444639   -1.398783
  C     -3.059241   -1.892514   -0.881129
  C      1.375771    0.769937    0.002659
  C     -1.731663   -2.293250   -0.282063
  C      1.480325    0.671951   -1.370387
  C      2.438525    1.173807    0.795799
  C     -0.589445   -2.385065   -1.079718
  C     -1.601635   -2.518137    1.086420
  C      2.695074    1.000415   -1.962211
  C      3.656504    1.499787    0.208462
  C      3.764553    1.409342   -1.181520
  C      0.650561   -2.668546   -0.522685
  C     -0.362025   -2.807332    1.651320
  C      0.771413   -2.872832    0.848894
  H     -0.053846    2.179000    1.839507
  H     -0.204381    2.920368   -0.525556
  H     -1.637245    3.364618    0.377165
  H     -2.348651    1.890676    2.482864
  H     -1.672048    0.274076    2.512521
  H     -2.859391    2.327590   -1.308055
  H     -1.418297    1.560759   -1.971601
  H     -3.453236   -0.287664    1.136162
  H     -3.799550    1.385746    0.720066
  H     -4.056190   -0.101321   -1.608054
  H     -2.485071   -0.410497   -2.344773
  H     -3.316520   -2.548023   -1.717023
  H     -3.848672   -2.020852   -0.137727
  H      0.642200    0.331684   -1.966999
  H     -0.673481   -2.238411   -2.152750
  H     -2.482188   -2.481349    1.720403
  H      2.804592    0.930682   -3.038094
  H      4.707776    1.659632   -1.655594
  H      1.525403   -2.738156   -1.159385
  H     -0.286647   -3.000340    2.716341
  H      1.736774   -3.108728    1.282391
  H      0.257266   -0.217823    1.408180
  H     -0.572452   -0.018485    0.000518
  C      2.280257    1.254824    2.325501
  H      3.225026    1.068976    2.792160
  H      1.934022    2.230150    2.597090
  H      1.571756    0.521636    2.650096
  H      4.488263    1.811414    0.805091

----------------------------
CARTESIAN COORDINATES (A.U.)
----------------------------
  NO LB      ZA    FRAG     MASS         X           Y           Z
   0 N     7.0000    0    14.007   -4.412881    0.837612   -0.901131
   1 N     7.0000    0    14.007    0.195209    0.847512    1.225705
   2 C     6.0000    0    12.011   -1.321174    3.092835    2.169738
   3 C     6.0000    0    12.011   -2.061096    4.752036   -0.068266
   4 C     6.0000    0    12.011   -3.676496    2.077765    3.493401
   5 C     6.0000    0    12.011   -3.721806    3.283762   -1.975626
   6 C     6.0000    0    12.011   -5.656580    1.216069    1.536111
   7 C     6.0000    0    12.011   -5.730887   -0.840246   -2.643317
   8 C     6.0000    0    12.011   -5.781128   -3.576333   -1.665092
   9 C     6.0000    0    12.011    2.599830    1.454970    0.005025
  10 C     6.0000    0    12.011   -3.272369   -4.333614   -0.533022
  11 C     6.0000    0    12.011    2.797409    1.269803   -2.589656
  12 C     6.0000    0    12.011    4.608144    2.218174    1.503842
  13 C     6.0000    0    12.011   -1.113890   -4.507120   -2.040371
  14 C     6.0000    0    12.011   -3.026652   -4.758589    2.053036
  15 C     6.0000    0    12.011    5.092952    1.890510   -3.708041
  16 C     6.0000    0    12.011    6.909791    2.834187    0.393936
  17 C     6.0000    0    12.011    7.113974    2.663270   -2.232749
  18 C     6.0000    0    12.011    1.229382   -5.042821   -0.987732
  19 C     6.0000    0    12.011   -0.684128   -5.305089    3.120543
  20 C     6.0000    0    12.011    1.457759   -5.428866    1.604177
  21 H     1.0000    0     1.008   -0.101754    4.117713    3.476164
  22 H     1.0000    0     1.008   -0.386224    5.518696   -0.993157
  23 H     1.0000    0     1.008   -3.093945    6.358207    0.712739
  24 H     1.0000    0     1.008   -4.438307    3.572860    4.691933
  25 H     1.0000    0     1.008   -3.159713    0.517929    4.747977
  26 H     1.0000    0     1.008   -5.403466    4.398508   -2.471866
  27 H     1.0000    0     1.008   -2.680193    2.949407   -3.725786
  28 H     1.0000    0     1.008   -6.525670   -0.543606    2.147035
  29 H     1.0000    0     1.008   -7.180109    2.618680    1.360728
  30 H     1.0000    0     1.008   -7.665088   -0.191469   -3.038782
  31 H     1.0000    0     1.008   -4.696104   -0.775727   -4.430979
  32 H     1.0000    0     1.008   -6.267315   -4.815066   -3.244703
  33 H     1.0000    0     1.008   -7.272936   -3.818857   -0.260266
  34 H     1.0000    0     1.008    1.213582    0.626792   -3.717089
  35 H     1.0000    0     1.008   -1.272695   -4.229984   -4.068108
  36 H     1.0000    0     1.008   -4.690656   -4.689070    3.251091
  37 H     1.0000    0     1.008    5.299911    1.758734   -5.741166
  38 H     1.0000    0     1.008    8.896407    3.136250   -3.128619
  39 H     1.0000    0     1.008    2.882594   -5.174365   -2.190920
  40 H     1.0000    0     1.008   -0.541684   -5.669821    5.133141
  41 H     1.0000    0     1.008    3.282027   -5.874645    2.423368
  42 H     1.0000    0     1.008    0.486162   -0.411626    2.661075
  43 H     1.0000    0     1.008   -1.081778   -0.034932    0.000979
  44 C     6.0000    0    12.011    4.309061    2.371273    4.394560
  45 H     1.0000    0     1.008    6.094416    2.020072    5.276418
  46 H     1.0000    0     1.008    3.654773    4.214373    4.907789
  47 H     1.0000    0     1.008    2.970188    0.985750    5.007956
  48 H     1.0000    0     1.008    8.481588    3.423076    1.521401

--------------------------------
INTERNAL COORDINATES (ANGSTROEM)
--------------------------------
 N      0   0   0     0.000000000000     0.00000000     0.00000000
 N      1   0   0     2.685699101327     0.00000000     0.00000000
 C      2   1   0     1.518295286241    70.09541331     0.00000000
 C      3   2   1     1.525379814086   109.30862279   300.07749499
 C      3   2   1     1.527296912227   107.87674511    60.18391099
 C      1   2   3     1.460354047077    86.21948137    60.94418374
 C      1   2   3     1.461733216254    92.22269176   311.47709458
 C      1   2   3     1.457646308184   134.48123053   182.00201170
 C      8   1   2     1.537860362561   111.64511097    54.83149918
 C      2   1   3     1.462796510450   127.24297590   252.34399951
 C      9   8   1     1.510606752314   111.59571827   318.32268565
 C     10   2   1     1.380502847961   119.30699487   338.17030223
 C     10   2   1     1.386228011914   118.57228105   157.73019859
 C     11   9   8     1.396189619204   120.65408420   294.53840281
 C     11   9   8     1.392920372757   120.96297823   111.46277912
 C     12  10   2     1.390596770913   118.20870688   179.14136342
 C     13  10   2     1.390935137384   119.86793387   180.68517822
 C     16  12  10     1.385815666043   120.27087348     0.20762290
 C     14  11   9     1.388618781555   120.98351501   175.81909327
 C     15  11   9     1.392615779792   121.00702657   183.97102253
 C     20  15  11     1.390273151334   120.08938916     0.13622299
 H      3   2   1     1.090170303231   106.56694057   180.08234205
 H      4   3   2     1.090719561931   110.72619928   297.16884246
 H      4   3   2     1.091764516872   106.42193064   181.60374750
 H      5   3   2     1.091201854968   108.24334005   161.62446732
 H      5   3   2     1.094017568986   109.85702907    45.52220250
 H      6   1   2     1.099478410894   111.46182710   202.48397410
 H      6   1   2     1.092185461686   108.23707374    85.04122190
 H      7   1   2     1.087713862272   109.59213407   254.72508042
 H      7   1   2     1.099774856264   110.36931583   137.09356447
 H      8   1   2     1.099675177855   112.05816143   178.72759019
 H      8   1   2     1.093577154717   106.76882227   295.52290200
 H      9   8   1     1.092979099598   108.13697768   196.52164241
 H      9   8   1     1.091933367751   110.62928280    80.53600330
 H     12  10   2     1.083596338799   120.75180364   358.10909414
 H     14  11   9     1.086262913864   119.48407213   355.44671277
 H     15  11   9     1.085661727723   119.50707406     4.84716142
 H     16  12  10     1.083688660687   119.70972512   179.90185466
 H     18  16  12     1.084924361099   119.52806336   179.80295463
 H     19  14  11     1.084242116441   119.87177331   179.84414199
 H     20  15  11     1.084990166494   119.79876283   181.32265913
 H     21  20  15     1.084199442974   120.35669643   180.69642239
 H      2   1   3     1.022061415293   116.54745394   103.27252293
 H      2   1   3     1.046293713005    32.12905005   179.67847185
 C     13  10   2     1.540000004580   120.32258698     1.07768027
 H     45  13  10     1.070000003319   109.47120227   150.39232419
 H     45  13  10     1.069999996587   109.47120231   270.39233843
 H     45  13  10     1.069999994492   109.47123153    30.39233180
 H     17  13  10     1.070000000433   120.89655713   180.13373953

---------------------------
INTERNAL COORDINATES (A.U.)
---------------------------
 N      0   0   0     0.000000000000     0.00000000     0.00000000
 N      1   0   0     5.075235779626     0.00000000     0.00000000
 C      2   1   0     2.869162281419    70.09541331     0.00000000
 C      3   2   1     2.882550098835   109.30862279   300.07749499
 C      3   2   1     2.886172889292   107.87674511    60.18391099
 C      1   2   3     2.759669207539    86.21948137    60.94418374
 C      1   2   3     2.762275459575    92.22269176   311.47709458
 C      1   2   3     2.754552322589   134.48123053   182.00201170
 C      8   1   2     2.906134917454   111.64511097    54.83149918
 C      2   1   3     2.764284794407   127.24297590   252.34399951
 C      9   8   1     2.854633057925   111.59571827   318.32268565
 C     10   2   1     2.608772309744   119.30699487   338.17030223
 C     10   2   1     2.619591301688   118.57228105   157.73019859
 C     11   9   8     2.638416011320   120.65408420   294.53840281
 C     11   9   8     2.632238030871   120.96297823   111.46277912
 C     12  10   2     2.627847059740   118.20870688   179.14136342
 C     13  10   2     2.628486479704   119.86793387   180.68517822
 C     16  12  10     2.618812080919   120.27087348     0.20762290
 C     14  11   9     2.624109201557   120.98351501   175.81909327
 C     15  11   9     2.631662433584   121.00702657   183.97102253
 C     20  15  11     2.627235507365   120.08938916     0.13622299
 H      3   2   1     2.060123312440   106.56694057   180.08234205
 H      4   3   2     2.061161260959   110.72619928   297.16884246
 H      4   3   2     2.063135939621   106.42193064   181.60374750
 H      5   3   2     2.062072662716   108.24334005   161.62446732
 H      5   3   2     2.067393591081   109.85702907    45.52220250
 H      6   1   2     2.077713086748   111.46182710   202.48397410
 H      6   1   2     2.063931410037   108.23707374    85.04122190
 H      7   1   2     2.055481311763   109.59213407   254.72508042
 H      7   1   2     2.078273287311   110.36931583   137.09356447
 H      8   1   2     2.078084922417   112.05816143   178.72759019
 H      8   1   2     2.066561328729   106.76882227   295.52290200
 H      9   8   1     2.065431168340   108.13697768   196.52164241
 H      9   8   1     2.063455021541   110.62928280    80.53600330
 H     12  10   2     2.047700320049   120.75180364   358.10909414
 H     14  11   9     2.052739416638   119.48407213   355.44671277
 H     15  11   9     2.051603339476   119.50707406     4.84716142
 H     16  12  10     2.047874783135   119.70972512   179.90185466
 H     18  16  12     2.050209918496   119.52806336   179.80295463
 H     19  14  11     2.048920662936   119.87177331   179.84414199
 H     20  15  11     2.050334272672   119.79876283   181.32265913
 H     21  20  15     2.048840021772   120.35669643   180.69642239
 H      2   1   3     1.931416166951   116.54745394   103.27252293
 H      2   1   3     1.977208573223    32.12905005   179.67847185
 C     13  10   2     2.910178254893   120.32258698     1.07768027
 H     45  13  10     2.022006969568   109.47120227   150.39232419
 H     45  13  10     2.022006956847   109.47120231   270.39233843
 H     45  13  10     2.022006952887   109.47123153    30.39233180
 H     17  13  10     2.022006964114   120.89655713   180.13373953

---------------------
BASIS SET INFORMATION
---------------------
There are 3 groups of distinct atoms

 Group   1 Type N   : 11s6p2d1f contracted to 5s3p2d1f pattern {62111/411/11/1}
 Group   2 Type C   : 11s6p2d1f contracted to 5s3p2d1f pattern {62111/411/11/1}
 Group   3 Type H   : 5s1p contracted to 3s1p pattern {311/1}

Atom   0N    basis set group =>   1
Atom   1N    basis set group =>   1
Atom   2C    basis set group =>   2
Atom   3C    basis set group =>   2
Atom   4C    basis set group =>   2
Atom   5C    basis set group =>   2
Atom   6C    basis set group =>   2
Atom   7C    basis set group =>   2
Atom   8C    basis set group =>   2
Atom   9C    basis set group =>   2
Atom  10C    basis set group =>   2
Atom  11C    basis set group =>   2
Atom  12C    basis set group =>   2
Atom  13C    basis set group =>   2
Atom  14C    basis set group =>   2
Atom  15C    basis set group =>   2
Atom  16C    basis set group =>   2
Atom  17C    basis set group =>   2
Atom  18C    basis set group =>   2
Atom  19C    basis set group =>   2
Atom  20C    basis set group =>   2
Atom  21H    basis set group =>   3
Atom  22H    basis set group =>   3
Atom  23H    basis set group =>   3
Atom  24H    basis set group =>   3
Atom  25H    basis set group =>   3
Atom  26H    basis set group =>   3
Atom  27H    basis set group =>   3
Atom  28H    basis set group =>   3
Atom  29H    basis set group =>   3
Atom  30H    basis set group =>   3
Atom  31H    basis set group =>   3
Atom  32H    basis set group =>   3
Atom  33H    basis set group =>   3
Atom  34H    basis set group =>   3
Atom  35H    basis set group =>   3
Atom  36H    basis set group =>   3
Atom  37H    basis set group =>   3
Atom  38H    basis set group =>   3
Atom  39H    basis set group =>   3
Atom  40H    basis set group =>   3
Atom  41H    basis set group =>   3
Atom  42H    basis set group =>   3
Atom  43H    basis set group =>   3
Atom  44C    basis set group =>   2
Atom  45H    basis set group =>   3
Atom  46H    basis set group =>   3
Atom  47H    basis set group =>   3
Atom  48H    basis set group =>   3
---------------------------------
AUXILIARY/J BASIS SET INFORMATION
---------------------------------
There are 3 groups of distinct atoms

 Group   1 Type N   : 12s5p4d2f1g contracted to 6s4p3d1f1g pattern {711111/2111/211/2/1}
 Group   2 Type C   : 12s5p4d2f1g contracted to 6s4p3d1f1g pattern {711111/2111/211/2/1}
 Group   3 Type H   : 5s2p1d contracted to 3s1p1d pattern {311/2/1}

Atom   0N    basis set group =>   1
Atom   1N    basis set group =>   1
Atom   2C    basis set group =>   2
Atom   3C    basis set group =>   2
Atom   4C    basis set group =>   2
Atom   5C    basis set group =>   2
Atom   6C    basis set group =>   2
Atom   7C    basis set group =>   2
Atom   8C    basis set group =>   2
Atom   9C    basis set group =>   2
Atom  10C    basis set group =>   2
Atom  11C    basis set group =>   2
Atom  12C    basis set group =>   2
Atom  13C    basis set group =>   2
Atom  14C    basis set group =>   2
Atom  15C    basis set group =>   2
Atom  16C    basis set group =>   2
Atom  17C    basis set group =>   2
Atom  18C    basis set group =>   2
Atom  19C    basis set group =>   2
Atom  20C    basis set group =>   2
Atom  21H    basis set group =>   3
Atom  22H    basis set group =>   3
Atom  23H    basis set group =>   3
Atom  24H    basis set group =>   3
Atom  25H    basis set group =>   3
Atom  26H    basis set group =>   3
Atom  27H    basis set group =>   3
Atom  28H    basis set group =>   3
Atom  29H    basis set group =>   3
Atom  30H    basis set group =>   3
Atom  31H    basis set group =>   3
Atom  32H    basis set group =>   3
Atom  33H    basis set group =>   3
Atom  34H    basis set group =>   3
Atom  35H    basis set group =>   3
Atom  36H    basis set group =>   3
Atom  37H    basis set group =>   3
Atom  38H    basis set group =>   3
Atom  39H    basis set group =>   3
Atom  40H    basis set group =>   3
Atom  41H    basis set group =>   3
Atom  42H    basis set group =>   3
Atom  43H    basis set group =>   3
Atom  44C    basis set group =>   2
Atom  45H    basis set group =>   3
Atom  46H    basis set group =>   3
Atom  47H    basis set group =>   3
Atom  48H    basis set group =>   3


           ************************************************************
           *        Program running with 8 parallel MPI-processes     *
           *              working on a common directory               *
           ************************************************************
------------------------------------------------------------------------------
                           ORCA GTO INTEGRAL CALCULATION
                           -- RI-GTO INTEGRALS CHOSEN --
------------------------------------------------------------------------------
------------------------------------------------------------------------------
                   ___                                                        
                  /   \      - P O W E R E D   B Y -                         
                 /     \                                                     
                 |  |  |   _    _      __       _____    __    __             
                 |  |  |  | |  | |    /  \     |  _  \  |  |  /  |          
                  \  \/   | |  | |   /    \    | | | |  |  | /  /          
                 / \  \   | |__| |  /  /\  \   | |_| |  |  |/  /          
                |  |  |   |  __  | /  /__\  \  |    /   |      \           
                |  |  |   | |  | | |   __   |  |    \   |  |\   \          
                \     /   | |  | | |  |  |  |  | |\  \  |  | \   \       
                 \___/    |_|  |_| |__|  |__|  |_| \__\ |__|  \__/        
                                                                              
                      - O R C A' S   B I G   F R I E N D -                    
                                      &                                       
                       - I N T E G R A L  F E E D E R -                       
                                                                              
 v1 FN, 2020, v2 2021                                                         
------------------------------------------------------------------------------


Reading SHARK input file desprop_oMe-Fentanyl_exoNProt_6.SHARKINP.tmp ... ok
----------------------
SHARK INTEGRAL PACKAGE
----------------------

Number of atoms                             ...     49
Number of basis functions                   ...    844
Number of shells                            ...    350
Maximum angular momentum                    ...      3
Integral batch strategy                     ... SHARK/LIBINT Hybrid
RI-J (if used) integral strategy            ... SPLIT-RIJ (Revised 2003 algorithm where possible)
Printlevel                                  ...      1
Contraction scheme used                     ... SEGMENTED contraction
Coulomb Range Separation                    ... NOT USED
Exchange Range Separation                   ... Long Range
   Mu parameter                             ...  0.300000
   Scaling (regular/separated)              ...  0.167000  0.833000
Finite Nucleus Model                        ... NOT USED
Auxiliary Coulomb fitting basis             ... AVAILABLE
   # of basis functions in Aux-J            ...   1375
   # of shells in Aux-J                     ...    465
   Maximum angular momentum in Aux-J        ...      4
Auxiliary J/K fitting basis                 ... NOT available
Auxiliary Correlation fitting basis         ... NOT available
Auxiliary 'external' fitting basis          ... NOT available
Integral threshold                          ...     2.500000e-11
Primitive cut-off                           ...     2.500000e-12
Primitive pair pre-selection threshold      ...     2.500000e-12

Calculating pre-screening integrals         ... done (  0.1 sec) Dimension = 350
Organizing shell pair data                  ... done (  0.5 sec)
Shell pair information
Total number of shell pairs                 ...     61425
Shell pairs after pre-screening             ...     48421
Total number of primitive shell pairs       ...    182068
Primitive shell pairs kept                  ...     96679
          la=0 lb=0:  14058 shell pairs
          la=1 lb=0:  14223 shell pairs
          la=1 lb=1:   3668 shell pairs
          la=2 lb=0:   6589 shell pairs
          la=2 lb=1:   3406 shell pairs
          la=2 lb=2:    824 shell pairs
          la=3 lb=0:   3081 shell pairs
          la=3 lb=1:   1624 shell pairs
          la=3 lb=2:    754 shell pairs
          la=3 lb=3:    194 shell pairs

Calculating one electron integrals          ... done (  0.1 sec)
Calculating RI/J V-Matrix + Cholesky decomp.... done (  0.2 sec)
Calculating Nuclear repulsion               ... done (  0.0 sec) ENN=   1945.741840292250 Eh

SHARK setup successfully completed in   1.6 seconds

Maximum memory used throughout the entire GTOINT-calculation: 69.6 MB
[1704171036.423899] [gra298:16190:0]          mpool.c:42   UCX  WARN  object 0xc140f00 was not returned to mpool ucp_requests
[1704171036.423935] [gra298:16190:0]          mpool.c:42   UCX  WARN  object 0xc1410c0 was not returned to mpool ucp_requests
[1704171036.423947] [gra298:16190:0]          mpool.c:42   UCX  WARN  object 0xc141280 was not returned to mpool ucp_requests
[1704171036.423960] [gra298:16190:0]          mpool.c:42   UCX  WARN  object 0xc141440 was not returned to mpool ucp_requests
[1704171036.423971] [gra298:16190:0]          mpool.c:42   UCX  WARN  object 0xc141600 was not returned to mpool ucp_requests
[1704171036.423981] [gra298:16190:0]          mpool.c:42   UCX  WARN  object 0xc1417c0 was not returned to mpool ucp_requests
[1704171036.424010] [gra298:16190:0]          mpool.c:42   UCX  WARN  object 0xc141980 was not returned to mpool ucp_requests
[1704171036.424021] [gra298:16190:0]          mpool.c:42   UCX  WARN  object 0xc141b40 was not returned to mpool ucp_requests
[1704171036.424031] [gra298:16190:0]          mpool.c:42   UCX  WARN  object 0xc141d00 was not returned to mpool ucp_requests
[1704171036.424055] [gra298:16190:0]          mpool.c:42   UCX  WARN  object 0xc141ec0 was not returned to mpool ucp_requests
[1704171036.424065] [gra298:16190:0]          mpool.c:42   UCX  WARN  object 0xc142080 was not returned to mpool ucp_requests
[1704171036.497051] [gra298:16191:0]          mpool.c:42   UCX  WARN  object 0xc088e80 was not returned to mpool ucp_requests
[1704171036.497093] [gra298:16191:0]          mpool.c:42   UCX  WARN  object 0xc089040 was not returned to mpool ucp_requests
[1704171036.497106] [gra298:16191:0]          mpool.c:42   UCX  WARN  object 0xc089200 was not returned to mpool ucp_requests
[1704171036.497118] [gra298:16191:0]          mpool.c:42   UCX  WARN  object 0xc0893c0 was not returned to mpool ucp_requests
[1704171036.497129] [gra298:16191:0]          mpool.c:42   UCX  WARN  object 0xc089580 was not returned to mpool ucp_requests
[1704171036.497140] [gra298:16191:0]          mpool.c:42   UCX  WARN  object 0xc089740 was not returned to mpool ucp_requests
[1704171036.497158] [gra298:16191:0]          mpool.c:42   UCX  WARN  object 0xc089900 was not returned to mpool ucp_requests
[1704171036.497169] [gra298:16191:0]          mpool.c:42   UCX  WARN  object 0xc089ac0 was not returned to mpool ucp_requests
[1704171036.497180] [gra298:16191:0]          mpool.c:42   UCX  WARN  object 0xc089c80 was not returned to mpool ucp_requests
[1704171036.497190] [gra298:16191:0]          mpool.c:42   UCX  WARN  object 0xc089e40 was not returned to mpool ucp_requests
[1704171036.497200] [gra298:16191:0]          mpool.c:42   UCX  WARN  object 0xc08a000 was not returned to mpool ucp_requests
[1704171036.497210] [gra298:16191:0]          mpool.c:42   UCX  WARN  object 0xc08a1c0 was not returned to mpool ucp_requests
[1704171036.497764] [gra298:16199:0]          mpool.c:42   UCX  WARN  object 0xaa55fc0 was not returned to mpool ucp_requests
[1704171036.497930] [gra298:16199:0]          mpool.c:42   UCX  WARN  object 0xaa56180 was not returned to mpool ucp_requests
[1704171036.497925] [gra298:16189:0]          mpool.c:42   UCX  WARN  object 0xbbb4fc0 was not returned to mpool ucp_requests
[1704171036.497958] [gra298:16189:0]          mpool.c:42   UCX  WARN  object 0xbbb5180 was not returned to mpool ucp_requests
[1704171036.497972] [gra298:16189:0]          mpool.c:42   UCX  WARN  object 0xbbb5340 was not returned to mpool ucp_requests
[1704171036.497984] [gra298:16189:0]          mpool.c:42   UCX  WARN  object 0xbbb5500 was not returned to mpool ucp_requests
[1704171036.497996] [gra298:16189:0]          mpool.c:42   UCX  WARN  object 0xbbb56c0 was not returned to mpool ucp_requests
[1704171036.498010] [gra298:16189:0]          mpool.c:42   UCX  WARN  object 0xbbb5880 was not returned to mpool ucp_requests
[1704171036.498021] [gra298:16189:0]          mpool.c:42   UCX  WARN  object 0xbbb5a40 was not returned to mpool ucp_requests
[1704171036.498032] [gra298:16189:0]          mpool.c:42   UCX  WARN  object 0xbbb5c00 was not returned to mpool ucp_requests
[1704171036.498043] [gra298:16189:0]          mpool.c:42   UCX  WARN  object 0xbbb5dc0 was not returned to mpool ucp_requests
[1704171036.498053] [gra298:16189:0]          mpool.c:42   UCX  WARN  object 0xbbb5f80 was not returned to mpool ucp_requests
[1704171036.498065] [gra298:16189:0]          mpool.c:42   UCX  WARN  object 0xbbb6140 was not returned to mpool ucp_requests
[1704171036.498209] [gra298:16199:0]          mpool.c:42   UCX  WARN  object 0xaa56340 was not returned to mpool ucp_requests
[1704171036.498336] [gra298:16199:0]          mpool.c:42   UCX  WARN  object 0xaa56500 was not returned to mpool ucp_requests
[1704171036.498461] [gra298:16199:0]          mpool.c:42   UCX  WARN  object 0xaa566c0 was not returned to mpool ucp_requests
[1704171036.498586] [gra298:16199:0]          mpool.c:42   UCX  WARN  object 0xaa56880 was not returned to mpool ucp_requests
[1704171036.498710] [gra298:16199:0]          mpool.c:42   UCX  WARN  object 0xaa56a40 was not returned to mpool ucp_requests
[1704171036.498834] [gra298:16199:0]          mpool.c:42   UCX  WARN  object 0xaa56c00 was not returned to mpool ucp_requests
[1704171036.498967] [gra298:16199:0]          mpool.c:42   UCX  WARN  object 0xaa56dc0 was not returned to mpool ucp_requests
[1704171036.499093] [gra298:16199:0]          mpool.c:42   UCX  WARN  object 0xaa56f80 was not returned to mpool ucp_requests
[1704171036.501809] [gra298:16193:0]          mpool.c:42   UCX  WARN  object 0xb468200 was not returned to mpool ucp_requests
[1704171036.501838] [gra298:16193:0]          mpool.c:42   UCX  WARN  object 0xb4683c0 was not returned to mpool ucp_requests
[1704171036.501850] [gra298:16193:0]          mpool.c:42   UCX  WARN  object 0xb468580 was not returned to mpool ucp_requests
[1704171036.501879] [gra298:16193:0]          mpool.c:42   UCX  WARN  object 0xb468740 was not returned to mpool ucp_requests
[1704171036.501891] [gra298:16193:0]          mpool.c:42   UCX  WARN  object 0xb468900 was not returned to mpool ucp_requests
[1704171036.501901] [gra298:16193:0]          mpool.c:42   UCX  WARN  object 0xb468ac0 was not returned to mpool ucp_requests
[1704171036.501912] [gra298:16193:0]          mpool.c:42   UCX  WARN  object 0xb468c80 was not returned to mpool ucp_requests
[1704171036.501922] [gra298:16193:0]          mpool.c:42   UCX  WARN  object 0xb468e40 was not returned to mpool ucp_requests
[1704171036.501933] [gra298:16193:0]          mpool.c:42   UCX  WARN  object 0xb469000 was not returned to mpool ucp_requests
[1704171036.501943] [gra298:16193:0]          mpool.c:42   UCX  WARN  object 0xb4691c0 was not returned to mpool ucp_requests
[1704171036.503149] [gra298:16188:0]          mpool.c:42   UCX  WARN  object 0xc363580 was not returned to mpool ucp_requests
[1704171036.503181] [gra298:16188:0]          mpool.c:42   UCX  WARN  object 0xc363740 was not returned to mpool ucp_requests
[1704171036.503199] [gra298:16188:0]          mpool.c:42   UCX  WARN  object 0xc363900 was not returned to mpool ucp_requests
[1704171036.503211] [gra298:16188:0]          mpool.c:42   UCX  WARN  object 0xc363ac0 was not returned to mpool ucp_requests
[1704171036.503227] [gra298:16188:0]          mpool.c:42   UCX  WARN  object 0xc363c80 was not returned to mpool ucp_requests
[1704171036.503237] [gra298:16188:0]          mpool.c:42   UCX  WARN  object 0xc363e40 was not returned to mpool ucp_requests
[1704171036.503253] [gra298:16188:0]          mpool.c:42   UCX  WARN  object 0xc364000 was not returned to mpool ucp_requests
[1704171036.503263] [gra298:16188:0]          mpool.c:42   UCX  WARN  object 0xc3641c0 was not returned to mpool ucp_requests
[1704171036.508831] [gra298:16192:0]          mpool.c:42   UCX  WARN  object 0xacffd40 was not returned to mpool ucp_requests
[1704171036.508873] [gra298:16192:0]          mpool.c:42   UCX  WARN  object 0xacfff00 was not returned to mpool ucp_requests
[1704171036.508893] [gra298:16192:0]          mpool.c:42   UCX  WARN  object 0xad000c0 was not returned to mpool ucp_requests
[1704171036.508904] [gra298:16192:0]          mpool.c:42   UCX  WARN  object 0xad00280 was not returned to mpool ucp_requests
[1704171036.508915] [gra298:16192:0]          mpool.c:42   UCX  WARN  object 0xad00440 was not returned to mpool ucp_requests
[1704171036.508932] [gra298:16192:0]          mpool.c:42   UCX  WARN  object 0xad00600 was not returned to mpool ucp_requests
[1704171036.508941] [gra298:16192:0]          mpool.c:42   UCX  WARN  object 0xad007c0 was not returned to mpool ucp_requests
[1704171036.508951] [gra298:16192:0]          mpool.c:42   UCX  WARN  object 0xad00980 was not returned to mpool ucp_requests
[1704171036.508960] [gra298:16192:0]          mpool.c:42   UCX  WARN  object 0xad00b40 was not returned to mpool ucp_requests
[1704171036.508970] [gra298:16192:0]          mpool.c:42   UCX  WARN  object 0xad00d00 was not returned to mpool ucp_requests
[1704171036.508979] [gra298:16192:0]          mpool.c:42   UCX  WARN  object 0xad00ec0 was not returned to mpool ucp_requests
[1704171036.508989] [gra298:16192:0]          mpool.c:42   UCX  WARN  object 0xad01080 was not returned to mpool ucp_requests


           ************************************************************
           *        Program running with 8 parallel MPI-processes     *
           *              working on a common directory               *
           ************************************************************
-------------------------------------------------------------------------------
                                 ORCA SCF
-------------------------------------------------------------------------------

------------
SCF SETTINGS
------------
Hamiltonian:
 Density Functional     Method          .... DFT(GTOs)
 Exchange Functional    Exchange        .... WB97X-V
 Correlation Functional Correlation     .... WB97X-V
 Gradients option       PostSCFGGA      .... off
 Hybrid DFT is turned on
   Fraction HF Exchange ScalHFX         ....  0.167000
   Scaling of DF-GGA-X  ScalDFX         ....  0.000000
   Scaling of DF-GGA-C  ScalDFC         ....  1.000000
   Scaling of DF-LDA-C  ScalLDAC        ....  1.000000
   Perturbative correction              ....  0.000000
   Density functional embedding theory  .... OFF
 Long-range corrected/Screened/Range-Separated Hybrid DFT is turned on
   Amount of maximum screened exact exchange              ....  0.833000
   Range separation parameter mu (erf(mu*r12)/r12)        ....  0.300000
 RI-approximation to the Coulomb term is turned on
   Number of AuxJ basis functions       .... 1375
   RIJ-COSX (HFX calculated with COS-X)).... on


General Settings:
 Integral files         IntName         .... desprop_oMe-Fentanyl_exoNProt_6
 Hartree-Fock type      HFTyp           .... RHF
 Total Charge           Charge          ....    1
 Multiplicity           Mult            ....    1
 Number of Electrons    NEL             ....  160
 Basis Dimension        Dim             ....  844
 Nuclear Repulsion      ENuc            ....   1945.7418402923 Eh

Convergence Acceleration:
 DIIS                   CNVDIIS         .... on
   Start iteration      DIISMaxIt       ....    12
   Startup error        DIISStart       ....  0.200000
   # of expansion vecs  DIISMaxEq       ....     5
   Bias factor          DIISBfac        ....   1.050
   Max. coefficient     DIISMaxC        ....  10.000
 Trust-Rad. Augm. Hess. CNVTRAH         .... auto
   Auto Start mean grad. ratio tolernc. ....  1.125000
   Auto Start start iteration           ....    20
   Auto Start num. interpolation iter.  ....    10
   Max. Number of Micro iterations      ....    16
   Max. Number of Macro iterations      .... Maxiter - #DIIS iter
   Number of Davidson start vectors     ....     2
   Converg. threshold I  (grad. norm)   ....   1.000e-05
   Converg. threshold II (energy diff.) ....   1.000e-08
   Grad. Scal. Fac. for Micro threshold ....   0.100
   Minimum threshold for Micro iter.    ....   0.010
   NR start threshold (gradient norm)   ....   0.001
   Initial trust radius                 ....   0.400
   Minimum AH scaling param. (alpha)    ....   1.000
   Maximum AH scaling param. (alpha)    .... 1000.000
   Orbital update algorithm             .... Taylor
   White noise on init. David. guess    .... on
   Maximum white noise                  ....   0.010
   Quad. conv. algorithm                .... NR
 SOSCF                  CNVSOSCF        .... on
   Start iteration      SOSCFMaxIt      ....   150
   Startup grad/error   SOSCFStart      ....  0.003300
 Level Shifting         CNVShift        .... on
   Level shift para.    LevelShift      ....    0.2500
   Turn off err/grad.   ShiftErr        ....    0.0010
 Zerner damping         CNVZerner       .... off
 Static damping         CNVDamp         .... on
   Fraction old density DampFac         ....    0.7000
   Max. Damping (<1)    DampMax         ....    0.9800
   Min. Damping (>=0)   DampMin         ....    0.0000
   Turn off err/grad.   DampErr         ....    0.1000
 Fernandez-Rico         CNVRico         .... off

SCF Procedure:
 Maximum # iterations   MaxIter         ....   125
 SCF integral mode      SCFMode         .... Direct
   Integral package                     .... SHARK and LIBINT hybrid scheme
 Reset frequency        DirectResetFreq ....    20
 Integral Threshold     Thresh          ....  2.500e-11 Eh
 Primitive CutOff       TCut            ....  2.500e-12 Eh

Convergence Tolerance:
 Convergence Check Mode ConvCheckMode   .... Total+1el-Energy
 Convergence forced     ConvForced      .... 0
 Energy Change          TolE            ....  1.000e-08 Eh
 1-El. energy change                    ....  1.000e-05 Eh
 Orbital Gradient       TolG            ....  1.000e-05
 Orbital Rotation angle TolX            ....  1.000e-05
 DIIS Error             TolErr          ....  5.000e-07


Diagonalization of the overlap matrix:
Smallest eigenvalue                        ... 4.900e-06
Time for diagonalization                   ...    0.224 sec
Threshold for overlap eigenvalues          ... 1.000e-08
Number of eigenvalues below threshold      ... 0
Time for construction of square roots      ...    0.123 sec
Total time needed                          ...    0.353 sec

Time for model grid setup =    0.461 sec

------------------------------
INITIAL GUESS: MODEL POTENTIAL
------------------------------
Loading Hartree-Fock densities                     ... done
Calculating cut-offs                               ... done
Initializing the effective Hamiltonian             ... done
Setting up the integral package (SHARK)            ... done
Starting the Coulomb interaction                   ... done (   1.0 sec)
Reading the grid                                   ... done
Mapping shells                                     ... done
Starting the XC term evaluation                    ... done (   0.6 sec)
  promolecular density results
     # of electrons  =    160.991685806
     EX              =    -82.417457276
     EC              =     -6.578428163
     EX+EC           =    -88.995885439
Transforming the Hamiltonian                       ... done (   0.1 sec)
Diagonalizing the Hamiltonian                      ... done (   0.2 sec)
Back transforming the eigenvectors                 ... done (   0.0 sec)
Now organizing SCF variables                       ... done
                      ------------------
                      INITIAL GUESS DONE (   2.4 sec)
                      ------------------
-------------------
DFT GRID GENERATION
-------------------

General Integration Accuracy     IntAcc      ... 4.959
Radial Grid Type                 RadialGrid  ... OptM3 with GC (2021)
Angular Grid (max. ang.)         AngularGrid ... 6 (Lebedev-590)
Angular grid pruning method      GridPruning ... 4 (adaptive)
Weight generation scheme         WeightScheme... Becke
Basis function cutoff            BFCut       ... 1.0000e-11
Integration weight cutoff        WCut        ... 1.0000e-14
Angular grids for H and He will be reduced by one unit
Partially contracted basis set               ... off
Rotationally invariant grid construction     ... off

Total number of grid points                  ...   533504
Total number of batches                      ...     8360
Average number of points per batch           ...       63
Average number of grid points per atom       ...    10888
Time for grid setup =    7.518 sec

--------------------
COSX GRID GENERATION
--------------------

GRIDX 1
-------
General Integration Accuracy     IntAcc      ... 4.020
Radial Grid Type                 RadialGrid  ... OptM3 with GC (2021)
Angular Grid (max. ang.)         AngularGrid ... 2 (Lebedev-110)
Angular grid pruning method      GridPruning ... 4 (adaptive)
Weight generation scheme         WeightScheme... Becke
Basis function cutoff            BFCut       ... 1.0000e-11
Integration weight cutoff        WCut        ... 1.0000e-14
Angular grids for H and He will be reduced by one unit
Partially contracted basis set               ... on
Rotationally invariant grid construction     ... off

Total number of grid points                  ...    57217
Total number of batches                      ...      920
Average number of points per batch           ...       62
Average number of grid points per atom       ...     1168
UseSFitting                                  ... on

GRIDX 2
-------
General Integration Accuracy     IntAcc      ... 4.338
Radial Grid Type                 RadialGrid  ... OptM3 with GC (2021)
Angular Grid (max. ang.)         AngularGrid ... 3 (Lebedev-194)
Angular grid pruning method      GridPruning ... 4 (adaptive)
Weight generation scheme         WeightScheme... Becke
Basis function cutoff            BFCut       ... 1.0000e-11
Integration weight cutoff        WCut        ... 1.0000e-14
Angular grids for H and He will be reduced by one unit
Partially contracted basis set               ... on
Rotationally invariant grid construction     ... off

Total number of grid points                  ...   124103
Total number of batches                      ...     1961
Average number of points per batch           ...       63
Average number of grid points per atom       ...     2533
UseSFitting                                  ... on

GRIDX 3
-------
General Integration Accuracy     IntAcc      ... 4.871
Radial Grid Type                 RadialGrid  ... OptM3 with GC (2021)
Angular Grid (max. ang.)         AngularGrid ... 4 (Lebedev-302)
Angular grid pruning method      GridPruning ... 4 (adaptive)
Weight generation scheme         WeightScheme... Becke
Basis function cutoff            BFCut       ... 1.0000e-11
Integration weight cutoff        WCut        ... 1.0000e-14
Angular grids for H and He will be reduced by one unit
Partially contracted basis set               ... on
Rotationally invariant grid construction     ... off

Total number of grid points                  ...   236892
Total number of batches                      ...     3732
Average number of points per batch           ...       63
Average number of grid points per atom       ...     4835
UseSFitting                                  ... on

Time for X-Grid setup             =    5.434 sec

--------------
SCF ITERATIONS
--------------
ITER       Energy         Delta-E        Max-DP      RMS-DP      [F,P]     Damp
               ***  Starting incremental Fock matrix formation  ***
  0   -888.1823751318   0.000000000000 0.04984303  0.00062977  0.3107760 0.7000
  1   -888.2373254544  -0.054950322643 0.04307389  0.00055696  0.2098762 0.7000
                               ***Turning on DIIS***
  2   -888.2699848322  -0.032659377755 0.03595333  0.00042962  0.1430346 0.7000
  3   -888.2914445849  -0.021459752718 0.11187865  0.00114470  0.0981150 0.0000
  4   -888.3424838297  -0.051039244798 0.01453377  0.00015240  0.0056463 0.0000
                      *** Initiating the SOSCF procedure ***
                           *** Shutting down DIIS ***
                      *** Re-Reading the Fockian *** 
                      *** Removing any level shift *** 
ITER      Energy       Delta-E        Grad      Rot      Max-DP    RMS-DP
  5   -888.34286208  -0.0003782529  0.000466  0.000466  0.005033  0.000065
               *** Restarting incremental Fock matrix formation ***
  6   -888.34295740  -0.0000953170  0.000324  0.000779  0.003630  0.000045
  7   -888.34297666  -0.0000192615  0.000107  0.000529  0.001561  0.000025
  8   -888.34297864  -0.0000019826  0.000144  0.000161  0.001031  0.000010
  9   -888.34298014  -0.0000014962  0.000022  0.000053  0.000822  0.000007
 10   -888.34298017  -0.0000000309  0.000019  0.000042  0.000381  0.000004
 11   -888.34298022  -0.0000000476  0.000003  0.000016  0.000180  0.000003
                  ***Gradient check signals convergence***
              ***Rediagonalizing the Fockian in SOSCF/NRSCF***

               *****************************************************
               *                     SUCCESS                       *
               *           SCF CONVERGED AFTER  12 CYCLES          *
               *****************************************************

Old exchange energy                            =    -41.941319949 Eh
New exchange energy                            =    -41.941323133 Eh
Exchange energy change after final integration =     -0.000003184 Eh
Total energy after final integration           =   -888.342983367 Eh
Final COS-X integration done in                =   151.187 sec

----------------
TOTAL SCF ENERGY
----------------

Total Energy       :         -888.34298337 Eh          -24173.04151 eV

Components:
Nuclear Repulsion  :         1945.74184029 Eh           52946.32721 eV
Electronic Energy  :        -2834.08482366 Eh          -77119.36872 eV
One Electron Energy:        -5045.13398625 Eh         -137285.07520 eV
Two Electron Energy:         2211.04916259 Eh           60165.70648 eV
Max COSX asymmetry :            0.00000043 Eh               0.00001 eV

Virial components:
Potential Energy   :        -1772.71692770 Eh          -48238.07998 eV
Kinetic Energy     :          884.37394433 Eh           24065.03847 eV
Virial Ratio       :            2.00448796


DFT components:
N(Alpha)           :       79.999968510040 electrons
N(Beta)            :       79.999968510040 electrons
N(Total)           :      159.999937020080 electrons
E(X)               :      -84.455075711683 Eh       
E(C)               :       -6.582522418154 Eh       
E(XC)              :      -91.037598129836 Eh       
DFET-embed. en.    :        0.000000000000 Eh       

---------------
SCF CONVERGENCE
---------------

  Last Energy change         ...    3.5935e-08  Tolerance :   1.0000e-08
  Last MAX-Density change    ...    1.6653e-15  Tolerance :   1.0000e-07
  Last RMS-Density change    ...    1.1517e-17  Tolerance :   5.0000e-09
  Last Orbital Gradient      ...    1.2550e-06  Tolerance :   1.0000e-05
[...]
 48:    862.43   0.000134    0.68  0.000048  ( 0.005337 -0.004231  0.001413)
 49:    883.66   0.003577   18.08  0.001263  (-0.031719  0.008209 -0.013778)
 50:    894.12   0.000556    2.81  0.000194  ( 0.008563 -0.005483  0.009517)
 51:    905.66   0.000152    0.77  0.000052  ( 0.000100  0.003846  0.006131)
 52:    923.56   0.000256    1.29  0.000086  (-0.006332  0.004220 -0.005334)
 53:    940.25   0.002036   10.29  0.000676  ( 0.022237 -0.012925  0.003759)
 54:    953.38   0.002168   10.96  0.000710  (-0.023351  0.004589 -0.011971)
 55:    975.65   0.000595    3.01  0.000190  ( 0.013571 -0.000688  0.002395)
 56:    987.63   0.000487    2.46  0.000154  (-0.002402  0.010858  0.005492)
 57:    992.71   0.000039    0.20  0.000012  (-0.001077 -0.001303  0.003063)
 58:   1016.14   0.000391    1.97  0.000120  ( 0.005527  0.004412 -0.008362)
 59:   1019.56   0.002819   14.25  0.000863  ( 0.020334 -0.019457 -0.008418)
 60:   1025.14   0.000179    0.90  0.000054  (-0.000226 -0.005691 -0.004689)
 61:   1026.23   0.001659    8.38  0.000504  (-0.000234 -0.021532 -0.006387)
 62:   1031.15   0.000086    0.43  0.000026  (-0.000752 -0.000800  0.004973)
 63:   1036.40   0.000006    0.03  0.000002  ( 0.000565 -0.000530 -0.001112)
 64:   1043.88   0.000003    0.02  0.000001  (-0.000340  0.000835  0.000312)
 65:   1046.63   0.001382    6.98  0.000412  (-0.014902 -0.006499  0.012157)
 66:   1068.34   0.000268    1.35  0.000078  (-0.008065 -0.002061 -0.002998)
 67:   1071.63   0.003928   19.85  0.001144  (-0.030119  0.013746 -0.006904)
 68:   1073.30   0.000316    1.60  0.000092  ( 0.000960 -0.009510  0.000652)
 69:   1088.71   0.000772    3.90  0.000221  (-0.006959  0.003053  0.012792)
 70:   1114.77   0.000379    1.91  0.000106  (-0.000065 -0.010211  0.001303)
 71:   1128.70   0.003489   17.63  0.000965  ( 0.025851 -0.001296  0.017166)
 72:   1132.42   0.007347   37.13  0.002025  ( 0.044945  0.001486 -0.001492)
 73:   1156.76   0.001094    5.53  0.000295  ( 0.014944 -0.001680 -0.008298)
 74:   1169.10   0.001614    8.16  0.000431  (-0.003435 -0.012666  0.016081)
 75:   1183.70   0.000144    0.73  0.000038  (-0.001356  0.002702 -0.005377)
 76:   1190.01   0.000437    2.21  0.000115  ( 0.008014  0.001525  0.006925)
 77:   1205.67   0.006567   33.18  0.001700  (-0.017480 -0.028881 -0.023663)
 78:   1213.85   0.000263    1.33  0.000068  (-0.007335  0.003362  0.001578)
 79:   1217.34   0.001933    9.77  0.000496  (-0.011711  0.018187  0.005256)
 80:   1218.60   0.000919    4.65  0.000235  ( 0.010734  0.002203  0.010739)
 81:   1220.47   0.001224    6.19  0.000313  ( 0.012097  0.012716  0.002217)
 82:   1243.47   0.000219    1.11  0.000055  (-0.002354 -0.003447 -0.006134)
 83:   1264.96   0.001826    9.23  0.000450  ( 0.008125 -0.005566 -0.018798)
 84:   1271.45   0.000667    3.37  0.000164  ( 0.006626 -0.010316  0.003660)
 85:   1280.93   0.000795    4.02  0.000194  (-0.012358  0.005911 -0.002431)
 86:   1288.89   0.003118   15.76  0.000755  ( 0.021348 -0.016799 -0.004110)
 87:   1303.57   0.000307    1.55  0.000074  (-0.003986 -0.004606  0.006037)
 88:   1318.31   0.000528    2.67  0.000125  (-0.006163  0.000535 -0.009311)
 89:   1323.13   0.002007   10.14  0.000473  ( 0.021471 -0.003000 -0.001854)
 90:   1326.95   0.002785   14.07  0.000655  ( 0.018294 -0.011921  0.013344)
 91:   1341.47   0.000378    1.91  0.000088  ( 0.004740 -0.004442 -0.006770)
 92:   1356.87   0.001879    9.49  0.000432  ( 0.014012 -0.014656 -0.004577)
 93:   1366.22   0.000299    1.51  0.000068  (-0.004553 -0.003536  0.005924)
 94:   1377.30   0.001416    7.16  0.000321  ( 0.006474 -0.013784  0.009435)
 95:   1383.99   0.001885    9.53  0.000425  (-0.011355  0.014156  0.009786)
 96:   1395.16   0.000771    3.90  0.000172  (-0.002724  0.012261  0.003827)
 97:   1401.73   0.001320    6.67  0.000294  (-0.008819 -0.008267 -0.012159)
 98:   1413.23   0.012333   62.33  0.002723  (-0.050796  0.011016  0.004676)
 99:   1423.43   0.006708   33.90  0.001471  ( 0.027141 -0.026810  0.003899)
100:   1432.46   0.003231   16.33  0.000704  (-0.019976  0.015684 -0.007675)
101:   1438.00   0.002928   14.80  0.000635  (-0.001904 -0.018849 -0.016629)
102:   1447.16   0.002119   10.71  0.000457  (-0.017120  0.012751  0.001107)
103:   1489.07   0.000601    3.04  0.000126  (-0.007316 -0.003394 -0.007802)
104:   1497.52   0.003011   15.22  0.000628  ( 0.004039 -0.020282  0.014137)
105:   1503.04   0.001401    7.08  0.000291  (-0.003493 -0.012490 -0.011080)
106:   1503.69   0.000647    3.27  0.000134  (-0.000556 -0.011567  0.000482)
107:   1507.14   0.001535    7.76  0.000318  (-0.005192 -0.013800 -0.010019)
108:   1508.65   0.001870    9.45  0.000387  ( 0.006717  0.014148 -0.011894)
109:   1517.25   0.000450    2.27  0.000093  (-0.007190 -0.005417 -0.003398)
110:   1520.85   0.003952   19.97  0.000811  (-0.012255 -0.004917  0.025230)
111:   1526.71   0.003119   15.76  0.000638  ( 0.024122  0.001399  0.007329)
112:   1540.23   0.006207   31.37  0.001258  ( 0.033058 -0.008094  0.009957)
113:   1553.51   0.002776   14.03  0.000558  (-0.021201  0.004922 -0.009165)
114:   1560.80   0.004960   25.07  0.000992  ( 0.015243  0.009918 -0.025709)
115:   1665.90   0.000233    1.18  0.000044  ( 0.003204  0.001597 -0.005552)
116:   1669.89   0.015750   79.59  0.002943  (-0.019279 -0.050345 -0.006086)
117:   1679.00   0.004939   24.96  0.000918  (-0.008926 -0.028949  0.000472)
118:   1689.41   0.001678    8.48  0.000310  (-0.011679  0.011808 -0.005845)
119:   1709.73   0.000706    3.57  0.000129  ( 0.006057  0.009095  0.003068)
120:   3014.31   0.015903   80.37  0.001646  ( 0.038198 -0.012914  0.004532)
121:   3016.96   0.002486   12.56  0.000257  ( 0.001833  0.007274 -0.014171)
122:   3021.69   0.023415  118.33  0.002418  ( 0.043117 -0.000465  0.023641)
123:   3056.47   0.002969   15.00  0.000303  (-0.012384 -0.006362  0.010455)
124:   3072.51   0.065364  330.32  0.006639  ( 0.068825  0.040911  0.015105)
125:   3079.86   0.013362   67.53  0.001354  (-0.029572 -0.009107 -0.019910)
126:   3091.12   0.000912    4.61  0.000092  (-0.008833 -0.003449 -0.001457)
127:   3100.08   0.000846    4.28  0.000085  ( 0.007933  0.001183 -0.004569)
128:   3105.92   0.002182   11.03  0.000219  ( 0.006407  0.013331 -0.000713)
129:   3109.15   0.003352   16.94  0.000336  (-0.013140  0.003897  0.012189)
130:   3118.44   0.001623    8.20  0.000162  ( 0.001694 -0.011685 -0.004802)
131:   3133.43   0.001915    9.68  0.000191  (-0.006772  0.003630  0.011477)
132:   3136.36   0.001286    6.50  0.000128  (-0.007036  0.008243  0.003239)
133:   3149.62   0.001197    6.05  0.000119  (-0.005815  0.005390  0.007462)
134:   3150.38   0.001919    9.70  0.000190  (-0.012586 -0.001009  0.005540)
135:   3167.37   0.002043   10.32  0.000201  (-0.001994 -0.012763  0.005863)
136:   3168.99   0.000876    4.43  0.000086  (-0.009025  0.000349 -0.002178)
137:   3188.14   0.000734    3.71  0.000072  (-0.004912  0.002056 -0.006593)
138:   3189.90   0.000572    2.89  0.000056  (-0.006634  0.000862  0.003353)
139:   3203.73   0.000405    2.05  0.000039  ( 0.006009 -0.000442 -0.001787)
140:   3208.32   0.000298    1.51  0.000029  ( 0.004087  0.000758  0.003427)
141:   3213.33   0.001113    5.63  0.000108  ( 0.003847  0.001486 -0.009544)
142:   3213.99   0.000241    1.22  0.000023  (-0.004389 -0.002006  0.000360)
143:   3224.17   0.000765    3.87  0.000074  (-0.008026 -0.002077 -0.002303)
144:   3225.26   0.000567    2.87  0.000055  (-0.007405 -0.000088 -0.000239)
145:   3236.35   0.000144    0.73  0.000014  ( 0.001047  0.000116 -0.003575)
146:   3467.37   0.008977   45.37  0.000808  ( 0.003270 -0.025258  0.012621)

* The epsilon (eps) is given for a Dirac delta lineshape.
** The dipole moment derivative (T) already includes vibrational overlap.

The first frequency considered to be a vibration is 6
The total number of vibrations considered is 141


--------------------------
THERMOCHEMISTRY AT 298.15K
--------------------------

Temperature         ... 298.15 K
Pressure            ... 1.00 atm
Total Mass          ... 295.45 AMU

Throughout the following assumptions are being made:
  (1) The electronic state is orbitally nondegenerate
  (2) There are no thermally accessible electronically excited states
  (3) Hindered rotations indicated by low frequency modes are not
      treated as such but are treated as vibrations and this may
      cause some error
  (4) All equations used are the standard statistical mechanics
      equations for an ideal gas
  (5) All vibrations are strictly harmonic

freq.      33.31  E(vib)   ...       0.55 
freq.      43.21  E(vib)   ...       0.53 
freq.      47.80  E(vib)   ...       0.53 
freq.      83.98  E(vib)   ...       0.48 
freq.      87.21  E(vib)   ...       0.48 
freq.     103.00  E(vib)   ...       0.46 
freq.     118.40  E(vib)   ...       0.44 
freq.     119.68  E(vib)   ...       0.44 
freq.     133.48  E(vib)   ...       0.42 
freq.     171.97  E(vib)   ...       0.38 
freq.     181.57  E(vib)   ...       0.37 
freq.     204.52  E(vib)   ...       0.35 
freq.     232.62  E(vib)   ...       0.32 
freq.     275.81  E(vib)   ...       0.28 
freq.     286.87  E(vib)   ...       0.27 
freq.     307.09  E(vib)   ...       0.26 
freq.     337.92  E(vib)   ...       0.24 
freq.     360.83  E(vib)   ...       0.22 
freq.     371.34  E(vib)   ...       0.21 
freq.     387.17  E(vib)   ...       0.20 
freq.     423.50  E(vib)   ...       0.18 
freq.     437.43  E(vib)   ...       0.17 
freq.     453.06  E(vib)   ...       0.16 
freq.     469.22  E(vib)   ...       0.16 
freq.     497.91  E(vib)   ...       0.14 
freq.     510.15  E(vib)   ...       0.14 
freq.     522.07  E(vib)   ...       0.13 
freq.     536.95  E(vib)   ...       0.12 
freq.     567.44  E(vib)   ...       0.11 
freq.     618.23  E(vib)   ...       0.09 
freq.     631.19  E(vib)   ...       0.09 
freq.     637.91  E(vib)   ...       0.09 
freq.     720.40  E(vib)   ...       0.07 
freq.     734.11  E(vib)   ...       0.06 
freq.     740.59  E(vib)   ...       0.06 
freq.     775.56  E(vib)   ...       0.05 
freq.     784.21  E(vib)   ...       0.05 
freq.     790.28  E(vib)   ...       0.05 
freq.     793.19  E(vib)   ...       0.05 
freq.     802.92  E(vib)   ...       0.05 
freq.     830.24  E(vib)   ...       0.04 
freq.     849.33  E(vib)   ...       0.04 
freq.     862.43  E(vib)   ...       0.04 
freq.     883.66  E(vib)   ...       0.04 
freq.     894.12  E(vib)   ...       0.03 
freq.     905.66  E(vib)   ...       0.03 
freq.     923.56  E(vib)   ...       0.03 
freq.     940.25  E(vib)   ...       0.03 
freq.     953.38  E(vib)   ...       0.03 
freq.     975.65  E(vib)   ...       0.03 
freq.     987.63  E(vib)   ...       0.02 
freq.     992.71  E(vib)   ...       0.02 
freq.    1016.14  E(vib)   ...       0.02 
freq.    1019.56  E(vib)   ...       0.02 
freq.    1025.14  E(vib)   ...       0.02 
freq.    1026.23  E(vib)   ...       0.02 
freq.    1031.15  E(vib)   ...       0.02 
freq.    1036.40  E(vib)   ...       0.02 
freq.    1043.88  E(vib)   ...       0.02 
freq.    1046.63  E(vib)   ...       0.02 
freq.    1068.34  E(vib)   ...       0.02 
freq.    1071.63  E(vib)   ...       0.02 
freq.    1073.30  E(vib)   ...       0.02 
freq.    1088.71  E(vib)   ...       0.02 
freq.    1114.77  E(vib)   ...       0.01 
freq.    1128.70  E(vib)   ...       0.01 
freq.    1132.42  E(vib)   ...       0.01 
freq.    1156.76  E(vib)   ...       0.01 
freq.    1169.10  E(vib)   ...       0.01 
freq.    1183.70  E(vib)   ...       0.01 
freq.    1190.01  E(vib)   ...       0.01 
freq.    1205.67  E(vib)   ...       0.01 
freq.    1213.85  E(vib)   ...       0.01 
freq.    1217.34  E(vib)   ...       0.01 
freq.    1218.60  E(vib)   ...       0.01 
freq.    1220.47  E(vib)   ...       0.01 
freq.    1243.47  E(vib)   ...       0.01 
freq.    1264.96  E(vib)   ...       0.01 
freq.    1271.45  E(vib)   ...       0.01 
freq.    1280.93  E(vib)   ...       0.01 
freq.    1288.89  E(vib)   ...       0.01 
freq.    1303.57  E(vib)   ...       0.01 
freq.    1318.31  E(vib)   ...       0.01 
freq.    1323.13  E(vib)   ...       0.01 
freq.    1326.95  E(vib)   ...       0.01 
freq.    1341.47  E(vib)   ...       0.01 
freq.    1356.87  E(vib)   ...       0.01 
freq.    1366.22  E(vib)   ...       0.01 
freq.    1377.30  E(vib)   ...       0.01 
freq.    1383.99  E(vib)   ...       0.00 
freq.    1395.16  E(vib)   ...       0.00 
freq.    1401.73  E(vib)   ...       0.00 
freq.    1413.23  E(vib)   ...       0.00 
freq.    1423.43  E(vib)   ...       0.00 
freq.    1432.46  E(vib)   ...       0.00 
freq.    1438.00  E(vib)   ...       0.00 
freq.    1447.16  E(vib)   ...       0.00 
freq.    1489.07  E(vib)   ...       0.00 
freq.    1497.52  E(vib)   ...       0.00 
freq.    1503.04  E(vib)   ...       0.00 
freq.    1503.69  E(vib)   ...       0.00 
freq.    1507.14  E(vib)   ...       0.00 
freq.    1508.65  E(vib)   ...       0.00 
freq.    1517.25  E(vib)   ...       0.00 
freq.    1520.85  E(vib)   ...       0.00 
freq.    1526.71  E(vib)   ...       0.00 
freq.    1540.23  E(vib)   ...       0.00 
freq.    1553.51  E(vib)   ...       0.00 
freq.    1560.80  E(vib)   ...       0.00 
freq.    1665.90  E(vib)   ...       0.00 
freq.    1669.89  E(vib)   ...       0.00 
freq.    1679.00  E(vib)   ...       0.00 
freq.    1689.41  E(vib)   ...       0.00 
freq.    1709.73  E(vib)   ...       0.00 
freq.    3014.31  E(vib)   ...       0.00 
freq.    3016.96  E(vib)   ...       0.00 
freq.    3021.69  E(vib)   ...       0.00 
freq.    3056.47  E(vib)   ...       0.00 
freq.    3072.51  E(vib)   ...       0.00 
freq.    3079.86  E(vib)   ...       0.00 
freq.    3091.12  E(vib)   ...       0.00 
freq.    3100.08  E(vib)   ...       0.00 
freq.    3105.92  E(vib)   ...       0.00 
freq.    3109.15  E(vib)   ...       0.00 
freq.    3118.44  E(vib)   ...       0.00 
freq.    3133.43  E(vib)   ...       0.00 
freq.    3136.36  E(vib)   ...       0.00 
freq.    3149.62  E(vib)   ...       0.00 
freq.    3150.38  E(vib)   ...       0.00 
freq.    3167.37  E(vib)   ...       0.00 
freq.    3168.99  E(vib)   ...       0.00 
freq.    3188.14  E(vib)   ...       0.00 
freq.    3189.90  E(vib)   ...       0.00 
freq.    3203.73  E(vib)   ...       0.00 
freq.    3208.32  E(vib)   ...       0.00 
freq.    3213.33  E(vib)   ...       0.00 
freq.    3213.99  E(vib)   ...       0.00 
freq.    3224.17  E(vib)   ...       0.00 
freq.    3225.26  E(vib)   ...       0.00 
freq.    3236.35  E(vib)   ...       0.00 
freq.    3467.37  E(vib)   ...       0.00 

------------
INNER ENERGY
------------

The inner energy is: U= E(el) + E(ZPE) + E(vib) + E(rot) + E(trans)
    E(el)   - is the total energy from the electronic structure calculation
              = E(kin-el) + E(nuc-el) + E(el-el) + E(nuc-nuc)
    E(ZPE)  - the the zero temperature vibrational energy from the frequency calculation
    E(vib)  - the the finite temperature correction to E(ZPE) due to population
              of excited vibrational states
    E(rot)  - is the rotational thermal energy
    E(trans)- is the translational thermal energy

Summary of contributions to the inner energy U:
Electronic energy                ...   -888.46958737 Eh
Zero point energy                ...      0.44227324 Eh     277.53 kcal/mol
Thermal vibrational correction   ...      0.01654625 Eh      10.38 kcal/mol
Thermal rotational correction    ...      0.00141627 Eh       0.89 kcal/mol
Thermal translational correction ...      0.00141627 Eh       0.89 kcal/mol
-----------------------------------------------------------------------
Total thermal energy                   -888.00793534 Eh


Summary of corrections to the electronic energy:
(perhaps to be used in another calculation)
Total thermal correction                  0.01937879 Eh      12.16 kcal/mol
Non-thermal (ZPE) correction              0.44227324 Eh     277.53 kcal/mol
-----------------------------------------------------------------------
Total correction                          0.46165203 Eh     289.69 kcal/mol


--------
ENTHALPY
--------

The enthalpy is H = U + kB*T
                kB is Boltzmann's constant
Total free energy                 ...   -888.00793534 Eh 
Thermal Enthalpy correction       ...      0.00094421 Eh       0.59 kcal/mol
-----------------------------------------------------------------------
Total Enthalpy                    ...   -888.00699113 Eh


Note: Only C1 symmetry has been detected, increase convergence thresholds 
      if your molecule has a higher symmetry. Symmetry factor of 1.0 is   
      used for the rotational entropy correction. 
 

Note: Rotational entropy computed according to Herzberg 
Infrared and Raman Spectra, Chapter V,1, Van Nostrand Reinhold, 1945 
Point Group:  C1, Symmetry Number:   1  
Rotational constants in cm-1:     0.013807     0.008755     0.007404 

Vibrational entropy computed according to the QRRHO of S. Grimme
Chem.Eur.J. 2012 18 9955


-------
ENTROPY
-------

The entropy contributions are T*S = T*(S(el)+S(vib)+S(rot)+S(trans))
     S(el)   - electronic entropy
     S(vib)  - vibrational entropy
     S(rot)  - rotational entropy
     S(trans)- translational entropy
The entropies will be listed as multiplied by the temperature to get
units of energy

Electronic entropy                ...      0.00000000 Eh      0.00 kcal/mol
Vibrational entropy               ...      0.02869830 Eh     18.01 kcal/mol
Rotational entropy                ...      0.01608531 Eh     10.09 kcal/mol
Translational entropy             ...      0.02040553 Eh     12.80 kcal/mol
-----------------------------------------------------------------------
Final entropy term                ...      0.06518914 Eh     40.91 kcal/mol

In case the symmetry of your molecule has not been determined correctly
or in case you have a reason to use a different symmetry number we print 
out the resulting rotational entropy values for sn=1,12 :
 --------------------------------------------------------
|  sn= 1 | S(rot)=       0.01608531 Eh     10.09 kcal/mol|
|  sn= 2 | S(rot)=       0.01543085 Eh      9.68 kcal/mol|
|  sn= 3 | S(rot)=       0.01504802 Eh      9.44 kcal/mol|
|  sn= 4 | S(rot)=       0.01477639 Eh      9.27 kcal/mol|
|  sn= 5 | S(rot)=       0.01456571 Eh      9.14 kcal/mol|
|  sn= 6 | S(rot)=       0.01439356 Eh      9.03 kcal/mol|
|  sn= 7 | S(rot)=       0.01424802 Eh      8.94 kcal/mol|
|  sn= 8 | S(rot)=       0.01412194 Eh      8.86 kcal/mol|
|  sn= 9 | S(rot)=       0.01401073 Eh      8.79 kcal/mol|
|  sn=10 | S(rot)=       0.01391125 Eh      8.73 kcal/mol|
|  sn=11 | S(rot)=       0.01382126 Eh      8.67 kcal/mol|
|  sn=12 | S(rot)=       0.01373911 Eh      8.62 kcal/mol|
 --------------------------------------------------------


-------------------
GIBBS FREE ENERGY
-------------------

The Gibbs free energy is G = H - T*S

Total enthalpy                    ...   -888.00699113 Eh 
Total entropy correction          ...     -0.06518914 Eh    -40.91 kcal/mol
-----------------------------------------------------------------------
Final Gibbs free energy         ...   -888.07218027 Eh

For completeness - the Gibbs free energy minus the electronic energy
G-E(el)                           ...      0.39740710 Eh    249.38 kcal/mol


Timings for individual modules:

Sum of individual times         ...    28493.455 sec (= 474.891 min)
GTO integral calculation        ...       44.263 sec (=   0.738 min)   0.2 %
SCF iterations                  ...    13037.411 sec (= 217.290 min)  45.8 %
SCF Gradient evaluation         ...     3618.974 sec (=  60.316 min)  12.7 %
Geometry relaxation             ...        4.476 sec (=   0.075 min)   0.0 %
Analytical frequency calculation...     9620.171 sec (= 160.336 min)  33.8 %
CHELPG charge generation        ...     2168.161 sec (=  36.136 min)   7.6 %
                             ****ORCA TERMINATED NORMALLY****
TOTAL RUN TIME: 0 days 7 hours 55 minutes 14 seconds 675 msec
