
Lmod is automatically replacing "intel/2020.1.217" with "gcc/10.3.0".


The following have been reloaded with a version change:
  1) gcccore/.9.3.0 => gcccore/.10.3.0        3) openmpi/4.0.3 => openmpi/4.1.1
  2) libfabric/1.10.1 => libfabric/1.12.1     4) ucx/1.8.0 => ucx/1.9.0

To execute ORCA, run: 
   ${EBROOTORCA}/orca orca.inp > orca.out
cp: cannot stat '/project/6006388/cieritan/Fentanyl_analogs/Despropionyl_ortho-Methylfentanyl/exoN-Prot/DFT/*.hess': No such file or directory
cp: cannot stat '/project/6006388/cieritan/Fentanyl_analogs/Despropionyl_ortho-Methylfentanyl/exoN-Prot/DFT/*.gbw': No such file or directory

                                 *****************
                                 * O   R   C   A *
                                 *****************

                                            #,                                       
                                            ###                                      
                                            ####                                     
                                            #####                                    
                                            ######                                   
                                           ########,                                 
                                     ,,################,,,,,                         
                               ,,#################################,,                 
                          ,,##########################################,,             
                       ,#########################################, ''#####,          
                    ,#############################################,,   '####,        
                  ,##################################################,,,,####,       
                ,###########''''           ''''###############################       
              ,#####''   ,,,,##########,,,,          '''####'''          '####       
            ,##' ,,,,###########################,,,                        '##       
           ' ,,###''''                  '''############,,,                           
         ,,##''                                '''############,,,,        ,,,,,,###''
      ,#''                                            '''#######################'''  
     '                                                          ''''####''''         
             ,#######,   #######,   ,#######,      ##                                
            ,#'     '#,  ##    ##  ,#'     '#,    #''#        ######   ,####,        
            ##       ##  ##   ,#'  ##            #'  '#       #        #'  '#        
            ##       ##  #######   ##           ,######,      #####,   #    #        
            '#,     ,#'  ##    ##  '#,     ,#' ,#      #,         ##   #,  ,#        
             '#######'   ##     ##  '#######'  #'      '#     #####' # '####'        



                  #######################################################
                  #                        -***-                        #
                  #          Department of theory and spectroscopy      #
                  #    Directorship and core code : Frank Neese         #
                  #        Max Planck Institute fuer Kohlenforschung    #
                  #                Kaiser Wilhelm Platz 1               #
                  #                 D-45470 Muelheim/Ruhr               #
                  #                      Germany                        #
                  #                                                     #
                  #                  All rights reserved                #
                  #                        -***-                        #
                  #######################################################


                         Program Version 5.0.4 -  RELEASE  -


 With contributions from (in alphabetic order):
   Daniel Aravena         : Magnetic Suceptibility
   Michael Atanasov       : Ab Initio Ligand Field Theory (pilot matlab implementation)
   Alexander A. Auer      : GIAO ZORA, VPT2 properties, NMR spectrum
   Ute Becker             : Parallelization
   Giovanni Bistoni       : ED, misc. LED, open-shell LED, HFLD
   Martin Brehm           : Molecular dynamics
   Dmytro Bykov           : SCF Hessian
   Vijay G. Chilkuri      : MRCI spin determinant printing, contributions to CSF-ICE
   Dipayan Datta          : RHF DLPNO-CCSD density
   Achintya Kumar Dutta   : EOM-CC, STEOM-CC
   Dmitry Ganyushin       : Spin-Orbit,Spin-Spin,Magnetic field MRCI
   Miquel Garcia          : C-PCM and meta-GGA Hessian, CC/C-PCM, Gaussian charge scheme
   Yang Guo               : DLPNO-NEVPT2, F12-NEVPT2, CIM, IAO-localization
   Andreas Hansen         : Spin unrestricted coupled pair/coupled cluster methods
   Benjamin Helmich-Paris : MC-RPA, TRAH-SCF, COSX integrals
   Lee Huntington         : MR-EOM, pCC
   Robert Izsak           : Overlap fitted RIJCOSX, COSX-SCS-MP3, EOM
   Marcus Kettner         : VPT2
   Christian Kollmar      : KDIIS, OOCD, Brueckner-CCSD(T), CCSD density, CASPT2, CASPT2-K
   Simone Kossmann        : Meta GGA functionals, TD-DFT gradient, OOMP2, MP2 Hessian
   Martin Krupicka        : Initial AUTO-CI
   Lucas Lang             : DCDCAS
   Marvin Lechner         : AUTO-CI (C++ implementation), FIC-MRCC
   Dagmar Lenk            : GEPOL surface, SMD
   Dimitrios Liakos       : Extrapolation schemes; Compound Job, initial MDCI parallelization
   Dimitrios Manganas     : Further ROCIS development; embedding schemes
   Dimitrios Pantazis     : SARC Basis sets
   Anastasios Papadopoulos: AUTO-CI, single reference methods and gradients
   Taras Petrenko         : DFT Hessian,TD-DFT gradient, ASA, ECA, R-Raman, ABS, FL, XAS/XES, NRVS
   Peter Pinski           : DLPNO-MP2, DLPNO-MP2 Gradient
   Christoph Reimann      : Effective Core Potentials
   Marius Retegan         : Local ZFS, SOC
   Christoph Riplinger    : Optimizer, TS searches, QM/MM, DLPNO-CCSD(T), (RO)-DLPNO pert. Triples
   Tobias Risthaus        : Range-separated hybrids, TD-DFT gradient, RPA, STAB
   Michael Roemelt        : Original ROCIS implementation
   Masaaki Saitow         : Open-shell DLPNO-CCSD energy and density
   Barbara Sandhoefer     : DKH picture change effects
   Avijit Sen             : IP-ROCIS
   Kantharuban Sivalingam : CASSCF convergence, NEVPT2, FIC-MRCI
   Bernardo de Souza      : ESD, SOC TD-DFT
   Georgi Stoychev        : AutoAux, RI-MP2 NMR, DLPNO-MP2 response
   Willem Van den Heuvel  : Paramagnetic NMR
   Boris Wezisla          : Elementary symmetry handling
   Frank Wennmohs         : Technical directorship


 We gratefully acknowledge several colleagues who have allowed us to
 interface, adapt or use parts of their codes:
   Stefan Grimme, W. Hujo, H. Kruse, P. Pracht,  : VdW corrections, initial TS optimization,
                  C. Bannwarth, S. Ehlert          DFT functionals, gCP, sTDA/sTD-DF
   Ed Valeev, F. Pavosevic, A. Kumar             : LibInt (2-el integral package), F12 methods
   Garnet Chan, S. Sharma, J. Yang, R. Olivares  : DMRG
   Ulf Ekstrom                                   : XCFun DFT Library
   Mihaly Kallay                                 : mrcc  (arbitrary order and MRCC methods)
   Jiri Pittner, Ondrej Demel                    : Mk-CCSD
   Frank Weinhold                                : gennbo (NPA and NBO analysis)
   Christopher J. Cramer and Donald G. Truhlar   : smd solvation model
   Lars Goerigk                                  : TD-DFT with DH, B97 family of functionals
   V. Asgeirsson, H. Jonsson                     : NEB implementation
   FAccTs GmbH                                   : IRC, NEB, NEB-TS, DLPNO-Multilevel, CI-OPT
                                                   MM, QMMM, 2- and 3-layer-ONIOM, Crystal-QMMM,
                                                   LR-CPCM, SF, NACMEs, symmetry and pop. for TD-DFT,
                                                   nearIR, NL-DFT gradient (VV10), updates on ESD,
                                                   ML-optimized integration grids
   S Lehtola, MJT Oliveira, MAL Marques          : LibXC Library
   Liviu Ungur et al                             : ANISO software


 Your calculation uses the libint2 library for the computation of 2-el integrals
 For citations please refer to: http://libint.valeyev.net

 Your ORCA version has been built with support for libXC version: 5.1.0
 For citations please refer to: https://tddft.org/programs/libxc/

 This ORCA versions uses:
   CBLAS   interface :  Fast vector & matrix operations
   LAPACKE interface :  Fast linear algebra routines
   SCALAPACK package :  Parallel linear algebra routines
   Shared memory     :  Shared parallel matrices
   BLAS/LAPACK       :  OpenBLAS 0.3.15  USE64BITINT DYNAMIC_ARCH NO_AFFINITY Haswell SINGLE_THREADED
        Core in use  :  Haswell
   Copyright (c) 2011-2014, The OpenBLAS Project


Your calculation utilizes the atom-pairwise dispersion correction
with the Becke-Johnson damping scheme (D3BJ)
Cite in your paper:
S.Grimme, S.Ehrlich, L.Goerigk, J Comput Chem, (2011), 32, 1456–1465 
S.Grimme, J.Antony, S.Ehrlich and H.Krieg, J.Chem.Phys., 132, (2010), 154104 
   

================================================================================

----- Orbital basis set information -----
Your calculation utilizes the basis: def2-TZVP
   F. Weigend and R. Ahlrichs, Phys. Chem. Chem. Phys. 7, 3297 (2005).

----- AuxJ basis set information -----
Your calculation utilizes the auxiliary basis: def2/J
   F. Weigend, Phys. Chem. Chem. Phys. 8, 1057 (2006).

================================================================================
                                        WARNINGS
                       Please study these warnings very carefully!
================================================================================


WARNING: Geometry Optimization
  ===> : Switching off AutoStart
         For restart on a previous wavefunction, please use MOREAD

INFO   : the flag for use of the SHARK integral package has been found!

================================================================================
                                       INPUT FILE
================================================================================
NAME = desprop_oMe-Fentanyl_exoNProt_72.inp
|  1> ! wB97X-D3BJ TightOpt Freq def2-TZVP def2/J RIJCOSX TightSCF defgrid3 CHELPG
|  2> %maxcore 3400
|  3> 
|  4> %pal nprocs 8 
|  5> end
|  6> 
|  7> %chelpg
|  8> grid 0.1
|  9> rmax 3.0
| 10> end
| 11> 
| 12> *xyz 1 1
| 13> N          -2.34663000       0.28916400       0.68710200
| 14> N           0.00870900       0.59650800      -0.56449600
| 15> C          -0.82702000       1.85449000      -0.72104600
| 16> C          -2.11707600       1.47328700      -1.44403500
| 17> C          -1.13915900       2.42848200       0.65735600
| 18> C          -3.08921900       0.76389800      -0.47899700
| 19> C          -1.95167600       1.42694500       1.51284300
| 20> C          -2.97895900      -0.79937800       1.42221500
| 21> C          -3.02387600      -2.09347600       0.59235700
| 22> C           1.32750300       0.78232900       0.03978800
| 23> C          -1.73223200      -2.31931900      -0.15781900
| 24> C           1.52718200       0.41317200       1.35496800
| 25> C           2.33758700       1.33493700      -0.73212600
| 26> C          -0.54094700      -2.55779700       0.53034100
| 27> C          -1.68658300      -2.23346700      -1.54730900
| 28> C           2.78510500       0.61762800       1.91114600
| 29> C           3.59931800       1.53510200      -0.18193100
| 30> C           3.80331200       1.17132400       1.15141300
| 31> C           0.66412400      -2.68223700      -0.14820800
| 32> C          -0.48223800      -2.36222800      -2.23485100
| 33> C           0.70013000      -2.57659500      -1.53568700
| 34> H          -0.22992400       2.55229200      -1.30859500
| 35> H          -1.88743900       0.83472700      -2.30221100
| 36> H          -2.56593500       2.38404300      -1.84371600
| 37> H          -1.71012100       3.34362900       0.48878200
| 38> H          -0.22204200       2.72184100       1.16966400
| 39> H          -3.89611900       1.44340300      -0.16806100
| 40> H          -3.55850300      -0.08008400      -0.97981300
| 41> H          -1.34439600       1.05389800       2.34045000
| 42> H          -2.82606800       1.92583600       1.95485800
| 43> H          -2.37610200      -0.96745200       2.31887300
| 44> H          -3.99104100      -0.53494100       1.76134400
| 45> H          -3.85628100      -2.06921300      -0.11392700
| 46> H          -3.22334400      -2.92622200       1.27163500
| 47> H           0.72851500      -0.03881800       1.93116200
| 48> H          -0.55810800      -2.65309900       1.61224000
| 49> H          -2.60568600      -2.07807100      -2.10391500
| 50> H           2.96902600       0.33659700       2.94146800
| 51> H           4.78145600       1.32093600       1.59629800
| 52> H           1.57807100      -2.86914700       0.40435900
| 53> H          -0.47236100      -2.31403700      -3.31873400
| 54> H           1.63850300      -2.68802400      -2.06719500
| 55> H          -0.61739600      -0.01690500       0.00689400
| 56> H           0.10406300       0.12279300      -1.46506400
| 57> H           4.39216114       1.95626880      -0.76409789
| 58> C           2.07256121       1.71816613      -2.19994641
| 59> H           1.48492379       2.61168166      -2.23476397
| 60> H           3.00434473       1.88441009      -2.69898792
| 61> H           1.54427388       0.92467609      -2.68593617
| 62> *
| 63> 
| 64> 
| 65>                          ****END OF INPUT****
================================================================================

                       *****************************
                       * Geometry Optimization Run *
                       *****************************

Geometry optimization settings:
Update method            Update   .... BFGS
Choice of coordinates    CoordSys .... Z-matrix Internals
Initial Hessian          InHess   .... Almoef's Model

Convergence Tolerances:
Energy Change            TolE     ....  1.0000e-06 Eh
Max. Gradient            TolMAXG  ....  1.0000e-04 Eh/bohr
RMS Gradient             TolRMSG  ....  3.0000e-05 Eh/bohr
Max. Displacement        TolMAXD  ....  1.0000e-03 bohr
RMS Displacement         TolRMSD  ....  6.0000e-04 bohr
Strict Convergence                ....  False
------------------------------------------------------------------------------
                        ORCA OPTIMIZATION COORDINATE SETUP
------------------------------------------------------------------------------

The optimization will be done in new redundant internal coordinates
Making redundant internal coordinates   ...  (new redundants) done
Evaluating the initial hessian          ...  (Almloef) done
Evaluating the coordinates              ...  done
Calculating the B-matrix                .... done
Calculating the G-matrix                .... done
Diagonalizing the G-matrix              .... done
Small eigenvalue found = 2.160e-03
Small eigenvalue found = 3.971e-03
Small eigenvalue found = 8.676e-03
Small eigenvalue found = 1.241e-02
Small eigenvalue found = 1.874e-02
Small eigenvalue found = 2.419e-02
The first mode is                       ....  142
The number of degrees of freedom        ....  141

    -----------------------------------------------------------------
                    Redundant Internal Coordinates


    -----------------------------------------------------------------
         Definition                    Initial Value    Approx d2E/dq
    -----------------------------------------------------------------
      1. B(C   2,N   1)                  1.5184         0.349187   
      2. B(C   3,C   2)                  1.5272         0.377467   
      3. B(C   4,C   2)                  1.5254         0.379921   
      4. B(C   5,C   3)                  1.5426         0.356686   
      5. B(C   5,N   0)                  1.4617         0.429997   
      6. B(C   6,C   4)                  1.5476         0.350163   
      7. B(C   6,N   0)                  1.4603         0.432282   
      8. B(C   7,N   0)                  1.4578         0.436234   
      9. B(C   8,C   7)                  1.5380         0.362787   
     10. B(C   9,N   1)                  1.4625         0.428752   
     11. B(C  10,C   8)                  1.5107         0.401072   
     12. B(C  11,C   9)                  1.3805         0.646929   
     13. B(C  12,C   9)                  1.3862         0.633625   
     14. B(C  13,C  10)                  1.3963         0.610549   
     15. B(C  14,C  10)                  1.3929         0.618203   
     16. B(C  15,C  11)                  1.3905         0.623636   
     17. B(C  16,C  12)                  1.3910         0.622617   
     18. B(C  17,C  16)                  1.3971         0.608818   
     19. B(C  17,C  15)                  1.3858         0.634446   
     20. B(C  18,C  13)                  1.3886         0.628101   
     21. B(C  19,C  14)                  1.3927         0.618526   
     22. B(C  20,C  19)                  1.3902         0.624237   
     23. B(C  20,C  18)                  1.3920         0.620312   
     24. B(H  21,C   2)                  1.0903         0.359757   
     25. B(H  22,C   3)                  1.0941         0.354774   
     26. B(H  23,C   3)                  1.0912         0.358529   
     27. B(H  24,C   4)                  1.0917         0.357798   
     28. B(H  25,C   4)                  1.0907         0.359178   
     29. B(H  26,C   5)                  1.0998         0.347404   
     30. B(H  27,C   5)                  1.0878         0.362997   
     31. B(H  28,C   6)                  1.0922         0.357210   
     32. B(H  29,C   6)                  1.0995         0.347790   
     33. B(H  30,C   7)                  1.0935         0.355536   
     34. B(H  31,C   7)                  1.0997         0.347549   
     35. B(H  32,C   8)                  1.0919         0.357548   
     36. B(H  33,C   8)                  1.0930         0.356139   
     37. B(H  34,C  11)                  1.0836         0.368683   
     38. B(H  35,C  13)                  1.0862         0.365130   
     39. B(H  36,C  14)                  1.0857         0.365856   
     40. B(H  37,C  15)                  1.0837         0.368554   
     41. B(H  38,C  17)                  1.0849         0.366870   
     42. B(H  39,C  18)                  1.0842         0.367808   
     43. B(H  40,C  19)                  1.0850         0.366777   
     44. B(H  41,C  20)                  1.0842         0.367873   
     45. B(H  42,N   1)                  1.0463         0.378670   
     46. B(H  43,C  20)                  2.7653         0.000765   
     47. B(H  43,N   1)                  1.0220         0.414020   
     48. B(H  44,C  16)                  1.0700         0.387554   
     49. B(C  45,C  12)                  1.5400         0.360100   
     50. B(H  46,C  45)                  1.0700         0.387554   
     51. B(H  47,C  45)                  1.0700         0.387554   
     52. B(H  48,C  45)                  1.0700         0.387554   
     53. A(C   5,N   0,C   6)          109.6007         0.376942   
     54. A(C   6,N   0,C   7)          114.4546         0.377882   
     55. A(C   5,N   0,C   7)          115.1151         0.377535   
     56. A(H  42,N   1,H  43)          105.3845         0.294818   
     57. A(C   2,N   1,H  42)          102.2785         0.318765   
     58. A(C   9,N   1,H  43)          109.8065         0.334604   
     59. A(C   2,N   1,C   9)          115.7000         0.363180   
     60. A(C   9,N   1,H  42)          112.8576         0.329692   
     61. A(C   2,N   1,H  43)          110.1526         0.323454   
     62. A(N   1,C   2,C   3)          107.8758         0.357597   
     63. A(C   3,C   2,C   4)          110.4177         0.365046   
     64. A(C   3,C   2,H  21)          111.5469         0.324821   
     65. A(C   4,C   2,H  21)          110.9897         0.325167   
     66. A(N   1,C   2,C   4)          109.3426         0.357991   
     67. A(N   1,C   2,H  21)          106.5226         0.318794   
     68. A(C   5,C   3,H  23)          110.7161         0.321637   
     69. A(H  22,C   3,H  23)          106.6295         0.289961   
     70. A(C   2,C   3,C   5)          110.5469         0.361132   
     71. A(C   2,C   3,H  22)          109.8605         0.324077   
     72. A(C   2,C   3,H  23)          108.2126         0.324638   
     73. A(C   5,C   3,H  22)          110.7679         0.321084   
     74. A(C   2,C   4,H  24)          106.4338         0.324875   
     75. A(H  24,C   4,H  25)          106.6676         0.290430   
     76. A(C   6,C   4,H  25)          110.8471         0.320762   
     77. A(C   2,C   4,H  25)          110.7068         0.325081   
     78. A(C   6,C   4,H  24)          110.6861         0.320561   
     79. A(C   2,C   4,C   6)          111.3104         0.360395   
     80. A(H  26,C   5,H  27)          107.0384         0.289570   
     81. A(N   0,C   5,C   3)          109.1640         0.366970   
     82. A(N   0,C   5,H  27)          109.5398         0.330370   
     83. A(C   3,C   5,H  27)          109.9159         0.322290   
     84. A(C   3,C   5,H  26)          110.8006         0.319983   
     85. A(N   0,C   5,H  26)          110.3563         0.327983   
     86. A(C   4,C   6,H  29)          110.2500         0.319078   
     87. A(H  28,C   6,H  29)          107.0103         0.288892   
     88. A(N   0,C   6,H  29)          111.4559         0.328330   
     89. A(C   4,C   6,H  28)          110.3643         0.320474   
     90. A(N   0,C   6,H  28)          108.2246         0.329782   
     91. A(N   0,C   6,C   4)          109.4904         0.366144   
     92. A(C   8,C   7,H  31)          109.9905         0.320894   
     93. A(C   8,C   7,H  30)          109.2219         0.322089   
     94. A(N   0,C   7,H  30)          106.8062         0.330022   
     95. A(N   0,C   7,C   8)          111.6465         0.368950   
     96. A(N   0,C   7,H  31)          112.0345         0.328786   
     97. A(H  30,C   7,H  31)          106.9473         0.288648   
     98. A(H  32,C   8,H  33)          106.2477         0.290011   
     99. A(C   7,C   8,H  33)          108.1235         0.322179   
    100. A(C  10,C   8,H  32)          109.5067         0.327748   
    101. A(C   7,C   8,H  32)          110.6449         0.322387   
    102. A(C   7,C   8,C  10)          111.6397         0.365954   
    103. A(C  10,C   8,H  33)          110.5332         0.327534   
    104. A(N   1,C   9,C  12)          118.5317         0.405370   
    105. A(N   1,C   9,C  11)          119.3459         0.406861   
    106. A(C  11,C   9,C  12)          122.1212         0.439121   
    107. A(C  13,C  10,C  14)          118.3083         0.432642   
    108. A(C   8,C  10,C  14)          120.9428         0.401465   
    109. A(C   8,C  10,C  13)          120.6823         0.400585   
    110. A(C   9,C  11,H  34)          120.7644         0.356885   
    111. A(C   9,C  11,C  15)          118.2019         0.437864   
    112. A(C  15,C  11,H  34)          121.0258         0.354671   
    113. A(C   9,C  12,C  45)          120.3026         0.395641   
    114. A(C   9,C  12,C  16)          119.8734         0.436099   
    115. A(C  16,C  12,C  45)          119.8222         0.394427   
    116. A(C  10,C  13,C  18)          120.9911         0.433880   
    117. A(C  18,C  13,H  35)          119.5098         0.354518   
    118. A(C  10,C  13,H  35)          119.4982         0.352820   
    119. A(C  10,C  14,C  19)          121.0039         0.433654   
    120. A(C  19,C  14,H  36)          119.4848         0.353715   
    121. A(C  10,C  14,H  36)          119.5054         0.353684   
    122. A(C  11,C  15,C  17)          120.2745         0.436329   
    123. A(C  17,C  15,H  37)          120.0091         0.355685   
    124. A(C  11,C  15,H  37)          119.7154         0.354650   
    125. A(C  12,C  16,C  17)          118.1964         0.432975   
    126. A(C  17,C  16,H  44)          120.9018         0.356231   
    127. A(C  12,C  16,H  44)          120.9018         0.357590   
    128. A(C  15,C  17,C  16)          121.3302         0.434444   
    129. A(C  16,C  17,H  38)          119.1500         0.352934   
    130. A(C  15,C  17,H  38)          119.5187         0.355409   
    131. A(C  13,C  18,C  20)          120.1817         0.435121   
    132. A(C  20,C  18,H  39)          119.9521         0.354207   
    133. A(C  13,C  18,H  39)          119.8648         0.354957   
    134. A(C  14,C  19,C  20)          120.0940         0.434412   
    135. A(C  20,C  19,H  40)          120.0991         0.354418   
    136. A(C  14,C  19,H  40)          119.7963         0.353866   
    137. A(C  18,C  20,C  19)          119.4058         0.434638   
    138. A(C  19,C  20,H  41)          120.3577         0.354597   
    139. A(C  18,C  20,H  41)          120.2150         0.354218   
    140. A(H  47,C  45,H  48)          109.4712         0.297665   
    141. A(H  46,C  45,H  48)          109.4712         0.297665   
    142. A(C  12,C  45,H  48)          109.4712         0.326284   
    143. A(H  46,C  45,H  47)          109.4713         0.297665   
    144. A(C  12,C  45,H  47)          109.4712         0.326284   
    145. A(C  12,C  45,H  46)          109.4712         0.326284   
    146. D(H  21,C   2,N   1,H  43)    -68.6760         0.011243   
    147. D(H  21,C   2,N   1,H  42)    179.6648         0.011243   
    148. D(C   4,C   2,N   1,H  43)    171.3167         0.011243   
    149. D(C   3,C   2,N   1,H  43)     51.2042         0.011243   
    150. D(C   3,C   2,N   1,H  42)    -60.4551         0.011243   
    151. D(C   4,C   2,N   1,C   9)    -63.4303         0.011243   
    152. D(C   4,C   2,N   1,H  42)     59.6575         0.011243   
    153. D(H  21,C   2,N   1,C   9)     56.5770         0.011243   
    154. D(C   3,C   2,N   1,C   9)    176.4572         0.011243   
    155. D(H  22,C   3,C   2,N   1)    -45.9375         0.011364   
    156. D(H  22,C   3,C   2,C   4)   -165.3705         0.011364   
    157. D(H  23,C   3,C   2,N   1)   -161.9889         0.011364   
    158. D(H  23,C   3,C   2,H  21)    -45.3336         0.011364   
    159. D(C   5,C   3,C   2,N   1)     76.6107         0.011364   
    160. D(H  23,C   3,C   2,C   4)     78.5782         0.011364   
    161. D(C   5,C   3,C   2,C   4)    -42.8223         0.011364   
    162. D(C   5,C   3,C   2,H  21)   -166.7341         0.011364   
    163. D(H  22,C   3,C   2,H  21)     70.7177         0.011364   
    164. D(H  24,C   4,C   2,H  21)     60.9645         0.011504   
    165. D(H  25,C   4,C   2,C   3)   -178.8105         0.011504   
    166. D(H  25,C   4,C   2,N   1)     62.6480         0.011504   
    167. D(H  24,C   4,C   2,C   3)    -63.2679         0.011504   
    168. D(H  24,C   4,C   2,N   1)    178.1906         0.011504   
    169. D(H  25,C   4,C   2,H  21)    -54.5781         0.011504   
    170. D(C   6,C   4,C   2,N   1)    -61.1199         0.011504   
    171. D(C   6,C   4,C   2,C   3)     57.4216         0.011504   
    172. D(C   6,C   4,C   2,H  21)   -178.3460         0.011504   
    173. D(H  26,C   5,N   0,C   7)     80.0213         0.015764   
    174. D(H  26,C   5,N   0,C   6)    -50.6896         0.015764   
    175. D(C   3,C   5,N   0,C   6)     71.3116         0.015764   
    176. D(C   3,C   5,N   0,C   7)   -157.9775         0.015764   
    177. D(H  27,C   5,C   3,H  23)    101.8759         0.010221   
    178. D(H  27,C   5,C   3,H  22)    -16.2002         0.010221   
    179. D(H  27,C   5,C   3,C   2)   -138.2167         0.010221   
    180. D(H  26,C   5,C   3,H  22)   -134.3003         0.010221   
    181. D(H  26,C   5,C   3,H  23)    -16.2242         0.010221   
    182. D(H  26,C   5,C   3,C   2)    103.6832         0.010221   
    183. D(N   0,C   5,C   3,H  23)   -137.9571         0.010221   
    184. D(N   0,C   5,C   3,H  22)    103.9667         0.010221   
    185. D(N   0,C   5,C   3,C   2)    -18.0497         0.010221   
    186. D(H  27,C   5,N   0,C   7)    -37.5795         0.015764   
    187. D(H  27,C   5,N   0,C   6)   -168.2904         0.015764   
    188. D(H  29,C   6,C   4,H  25)    105.5243         0.009878   
    189. D(H  29,C   6,C   4,H  24)    -12.6301         0.009878   
    190. D(H  28,C   6,C   4,H  25)    -12.4803         0.009878   
    191. D(H  28,C   6,C   4,H  24)   -130.6348         0.009878   
    192. D(H  28,C   6,C   4,C   2)    111.2079         0.009878   
    193. D(N   0,C   6,C   4,H  25)   -131.5088         0.009878   
    194. D(N   0,C   6,C   4,H  24)    110.3368         0.009878   
    195. D(N   0,C   6,C   4,C   2)     -7.8206         0.009878   
    196. D(H  29,C   6,N   0,C   7)    -64.8322         0.015932   
    197. D(H  29,C   6,N   0,C   5)     66.2309         0.015932   
    198. D(H  28,C   6,N   0,C   7)     52.5763         0.015932   
    199. D(H  29,C   6,C   4,C   2)   -130.7875         0.009878   
    200. D(H  28,C   6,N   0,C   5)   -176.3606         0.015932   
    201. D(C   4,C   6,N   0,C   7)    172.9189         0.015932   
    202. D(C   4,C   6,N   0,C   5)    -56.0180         0.015932   
    203. D(H  31,C   7,N   0,C   5)    -56.8574         0.016226   
    204. D(H  30,C   7,N   0,C   6)    -45.3190         0.016226   
    205. D(H  30,C   7,N   0,C   5)   -173.6481         0.016226   
    206. D(C   8,C   7,N   0,C   6)   -164.6516         0.016226   
    207. D(H  31,C   7,N   0,C   6)     71.4718         0.016226   
    208. D(C   8,C   7,N   0,C   5)     67.0193         0.016226   
    209. D(H  33,C   8,C   7,H  31)    -71.5434         0.010548   
    210. D(H  33,C   8,C   7,N   0)    163.4352         0.010548   
    211. D(H  32,C   8,C   7,H  31)     44.4277         0.010548   
    212. D(H  32,C   8,C   7,H  30)    161.5140         0.010548   
    213. D(H  32,C   8,C   7,N   0)    -80.5936         0.010548   
    214. D(C  10,C   8,C   7,H  31)    166.6607         0.010548   
    215. D(H  33,C   8,C   7,H  30)     45.5429         0.010548   
    216. D(C  10,C   8,C   7,H  30)    -76.2530         0.010548   
    217. D(C  10,C   8,C   7,N   0)     41.6394         0.010548   
    218. D(C  12,C   9,N   1,H  43)     49.5982         0.015673   
    219. D(C  12,C   9,N   1,H  42)    166.8451         0.015673   
    220. D(C  12,C   9,N   1,C   2)    -75.8323         0.015673   
    221. D(C  11,C   9,N   1,H  43)   -130.8074         0.015673   
    222. D(C  11,C   9,N   1,H  42)    -13.5605         0.015673   
    223. D(C  11,C   9,N   1,C   2)    103.7621         0.015673   
    224. D(C  14,C  10,C   8,H  33)    127.8241         0.011935   
    225. D(C  14,C  10,C   8,H  32)     11.1030         0.011935   
    226. D(C  14,C  10,C   8,C   7)   -111.7815         0.011935   
    227. D(C  13,C  10,C   8,H  33)    -55.1946         0.011935   
    228. D(C  13,C  10,C   8,H  32)   -171.9157         0.011935   
    229. D(C  13,C  10,C   8,C   7)     65.1998         0.011935   
    230. D(H  34,C  11,C   9,C  12)   -178.5263         0.029121   
    231. D(H  34,C  11,C   9,N   1)      1.8945         0.029121   
    232. D(C  15,C  11,C   9,C  12)      0.4645         0.029121   
    233. D(C  15,C  11,C   9,N   1)   -179.1147         0.029121   
    234. D(C  45,C  12,C   9,C  11)    179.3612         0.027857   
    235. D(C  45,C  12,C   9,N   1)     -1.0563         0.027857   
    236. D(C  16,C  12,C   9,C  11)     -0.1515         0.027857   
    237. D(C  16,C  12,C   9,N   1)    179.4311         0.027857   
    238. D(H  35,C  13,C  10,C  14)   -178.4783         0.025748   
    239. D(H  35,C  13,C  10,C   8)      4.4624         0.025748   
    240. D(C  18,C  13,C  10,C  14)      1.1651         0.025748   
    241. D(C  18,C  13,C  10,C   8)   -175.8942         0.025748   
    242. D(H  36,C  14,C  10,C  13)    178.1888         0.026436   
    243. D(H  36,C  14,C  10,C   8)     -4.7599         0.026436   
    244. D(C  19,C  14,C  10,C  13)     -0.9234         0.026436   
    245. D(C  19,C  14,C  10,C   8)    176.1280         0.026436   
    246. D(H  37,C  15,C  11,H  34)     -0.9965         0.026932   
    247. D(H  37,C  15,C  11,C   9)   -179.9846         0.026932   
    248. D(C  17,C  15,C  11,H  34)    178.6450         0.026932   
    249. D(C  17,C  15,C  11,C   9)     -0.3430         0.026932   
    250. D(H  44,C  16,C  12,C  45)      0.2046         0.026838   
    251. D(H  44,C  16,C  12,C   9)    179.7196         0.026838   
    252. D(C  17,C  16,C  12,C  45)   -179.7954         0.026838   
    253. D(C  17,C  16,C  12,C   9)     -0.2804         0.026838   
    254. D(H  38,C  17,C  16,H  44)      0.0154         0.025594   
    255. D(H  38,C  17,C  16,C  12)   -179.9846         0.025594   
    256. D(C  15,C  17,C  16,H  44)   -179.6022         0.025594   
    257. D(C  15,C  17,C  16,C  12)      0.3978         0.025594   
    258. D(H  38,C  17,C  15,H  37)     -0.0604         0.027934   
    259. D(H  38,C  17,C  15,C  11)   -179.7009         0.027934   
    260. D(C  16,C  17,C  15,H  37)    179.5558         0.027934   
    261. D(C  16,C  17,C  15,C  11)     -0.0847         0.027934   
    262. D(H  39,C  18,C  13,H  35)     -0.2450         0.027343   
    263. D(H  39,C  18,C  13,C  10)   -179.8883         0.027343   
    264. D(C  20,C  18,C  13,H  35)    179.3241         0.027343   
    265. D(C  20,C  18,C  13,C  10)     -0.3192         0.027343   
    266. D(H  40,C  19,C  14,H  36)     -0.4649         0.026465   
    267. D(H  40,C  19,C  14,C  10)    178.6474         0.026465   
    268. D(C  20,C  19,C  14,H  36)   -179.2765         0.026465   
    269. D(C  20,C  19,C  14,C  10)     -0.1642         0.026465   
    270. D(H  41,C  20,C  18,C  13)   -179.1087         0.028936   
    271. D(C  19,C  20,C  18,H  39)    178.7801         0.028936   
    272. D(C  19,C  20,C  18,C  13)     -0.7887         0.028936   
    273. D(H  41,C  20,C  19,H  40)      0.5365         0.029328   
    274. D(H  41,C  20,C  19,C  14)    179.3444         0.029328   
    275. D(C  18,C  20,C  19,H  40)   -177.7810         0.029328   
    276. D(C  18,C  20,C  19,C  14)      1.0269         0.029328   
    277. D(H  41,C  20,C  18,H  39)      0.4601         0.028936   
    278. D(H  48,C  45,C  12,C  16)    134.0258         0.009750   
    279. D(H  48,C  45,C  12,C   9)    -45.4871         0.009750   
    280. D(H  47,C  45,C  12,C  16)     14.0258         0.009750   
    281. D(H  47,C  45,C  12,C   9)   -165.4871         0.009750   
    282. D(H  46,C  45,C  12,C  16)   -105.9742         0.009750   
    283. D(H  46,C  45,C  12,C   9)     74.5129         0.009750   
    -----------------------------------------------------------------

Number of atoms                         .... 49
Number of degrees of freedom            .... 283

         *************************************************************
         *                GEOMETRY OPTIMIZATION CYCLE   1            *
         *************************************************************
---------------------------------
CARTESIAN COORDINATES (ANGSTROEM)
---------------------------------
  N     -2.346630    0.289164    0.687102
  N      0.008709    0.596508   -0.564496
  C     -0.827020    1.854490   -0.721046
  C     -2.117076    1.473287   -1.444035
  C     -1.139159    2.428482    0.657356
  C     -3.089219    0.763898   -0.478997
  C     -1.951676    1.426945    1.512843
  C     -2.978959   -0.799378    1.422215
  C     -3.023876   -2.093476    0.592357
  C      1.327503    0.782329    0.039788
  C     -1.732232   -2.319319   -0.157819
  C      1.527182    0.413172    1.354968
  C      2.337587    1.334937   -0.732126
  C     -0.540947   -2.557797    0.530341
  C     -1.686583   -2.233467   -1.547309
  C      2.785105    0.617628    1.911146
  C      3.599318    1.535102   -0.181931
  C      3.803312    1.171324    1.151413
  C      0.664124   -2.682237   -0.148208
  C     -0.482238   -2.362228   -2.234851
  C      0.700130   -2.576595   -1.535687
  H     -0.229924    2.552292   -1.308595
  H     -1.887439    0.834727   -2.302211
  H     -2.565935    2.384043   -1.843716
  H     -1.710121    3.343629    0.488782
  H     -0.222042    2.721841    1.169664
  H     -3.896119    1.443403   -0.168061
  H     -3.558503   -0.080084   -0.979813
  H     -1.344396    1.053898    2.340450
  H     -2.826068    1.925836    1.954858
  H     -2.376102   -0.967452    2.318873
  H     -3.991041   -0.534941    1.761344
  H     -3.856281   -2.069213   -0.113927
  H     -3.223344   -2.926222    1.271635
  H      0.728515   -0.038818    1.931162
  H     -0.558108   -2.653099    1.612240
  H     -2.605686   -2.078071   -2.103915
  H      2.969026    0.336597    2.941468
  H      4.781456    1.320936    1.596298
  H      1.578071   -2.869147    0.404359
  H     -0.472361   -2.314037   -3.318734
  H      1.638503   -2.688024   -2.067195
  H     -0.617396   -0.016905    0.006894
  H      0.104063    0.122793   -1.465064
  H      4.392161    1.956269   -0.764098
  C      2.072561    1.718166   -2.199946
  H      1.484924    2.611682   -2.234764
  H      3.004345    1.884410   -2.698988
  H      1.544274    0.924676   -2.685936

----------------------------
CARTESIAN COORDINATES (A.U.)
----------------------------
  NO LB      ZA    FRAG     MASS         X           Y           Z
   0 N     7.0000    0    14.007   -4.434488    0.546441    1.298435
   1 N     7.0000    0    14.007    0.016458    1.127237   -1.066743
   2 C     6.0000    0    12.011   -1.562841    3.504478   -1.362579
   3 C     6.0000    0    12.011   -4.000694    2.784109   -2.728831
   4 C     6.0000    0    12.011   -2.152699    4.589166    1.242223
   5 C     6.0000    0    12.011   -5.837778    1.443558   -0.905173
   6 C     6.0000    0    12.011   -3.688133    2.696535    2.858859
   7 C     6.0000    0    12.011   -5.629417   -1.510605    2.687597
   8 C     6.0000    0    12.011   -5.714298   -3.956096    1.119393
   9 C     6.0000    0    12.011    2.508617    1.478388    0.075188
  10 C     6.0000    0    12.011   -3.273444   -4.382878   -0.298235
  11 C     6.0000    0    12.011    2.885956    0.780782    2.560518
  12 C     6.0000    0    12.011    4.417399    2.522665   -1.383518
  13 C     6.0000    0    12.011   -1.022242   -4.833536    1.002199
  14 C     6.0000    0    12.011   -3.187180   -4.220641   -2.923990
  15 C     6.0000    0    12.011    5.263086    1.167148    3.611543
  16 C     6.0000    0    12.011    6.801725    2.900922   -0.343800
  17 C     6.0000    0    12.011    7.187218    2.213482    2.175855
  18 C     6.0000    0    12.011    1.255012   -5.068693   -0.280073
  19 C     6.0000    0    12.011   -0.911298   -4.463964   -4.223256
  20 C     6.0000    0    12.011    1.323054   -4.869059   -2.902028
  21 H     1.0000    0     1.008   -0.434493    4.823133   -2.472886
  22 H     1.0000    0     1.008   -3.566743    1.577405   -4.350548
  23 H     1.0000    0     1.008   -4.848914    4.505188   -3.484118
  24 H     1.0000    0     1.008   -3.231660    6.318543    0.923664
  25 H     1.0000    0     1.008   -0.419599    5.143534    2.210345
  26 H     1.0000    0     1.008   -7.362598    2.727636   -0.317589
  27 H     1.0000    0     1.008   -6.724596   -0.151337   -1.851578
  28 H     1.0000    0     1.008   -2.540540    1.991579    4.422810
  29 H     1.0000    0     1.008   -5.340495    3.639303    3.694146
  30 H     1.0000    0     1.008   -4.490182   -1.828219    4.382035
  31 H     1.0000    0     1.008   -7.541974   -1.010892    3.328458
  32 H     1.0000    0     1.008   -7.287315   -3.910246   -0.215291
  33 H     1.0000    0     1.008   -6.091237   -5.529758    2.403042
  34 H     1.0000    0     1.008    1.376694   -0.073355    3.649367
  35 H     1.0000    0     1.008   -1.054671   -5.013631    3.046692
  36 H     1.0000    0     1.008   -4.924033   -3.926985   -3.975823
  37 H     1.0000    0     1.008    5.610646    0.636076    5.558569
  38 H     1.0000    0     1.008    9.035642    2.496207    3.016566
  39 H     1.0000    0     1.008    2.982122   -5.421902    0.764128
  40 H     1.0000    0     1.008   -0.892633   -4.372896   -6.271498
  41 H     1.0000    0     1.008    3.096322   -5.079629   -3.906432
  42 H     1.0000    0     1.008   -1.166709   -0.031946    0.013028
  43 H     1.0000    0     1.008    0.196651    0.232045   -2.768570
  44 H     1.0000    0     1.008    8.299982    3.696812   -1.443936
  45 C     6.0000    0    12.011    3.916573    3.246863   -4.157296
  46 H     1.0000    0     1.008    2.806099    4.935363   -4.223092
  47 H     1.0000    0     1.008    5.677389    3.561019   -5.100348
  48 H     1.0000    0     1.008    2.918255    1.747385   -5.075684

--------------------------------
INTERNAL COORDINATES (ANGSTROEM)
--------------------------------
 N      0   0   0     0.000000000000     0.00000000     0.00000000
 N      1   0   0     2.684879828384     0.00000000     0.00000000
 C      2   1   0     1.518377283900    70.12626977     0.00000000
 C      3   2   1     1.527178216341   107.87575083   299.78318569
 C      3   2   1     1.525414581348   109.34256797    59.89574233
 C      1   2   3     1.461710529304    92.09775234    48.84313271
 C      1   2   3     1.460267942933    86.39610987   299.32862279
 C      1   2   3     1.457791059368   134.51267380   178.01255426
 C      8   1   2     1.537976420709   111.64645539   305.85186633
 C      2   1   3     1.462499986712   127.80616677   107.64873891
 C      9   8   1     1.510666513285   111.63969493    41.63937385
 C     10   2   1     1.380524185261   119.34586979    19.73798138
 C     10   2   1     1.386180548167   118.53167822   200.14360162
 C     11   9   8     1.396279303474   120.68228222    65.19977379
 C     11   9   8     1.392887955725   120.94276350   248.21846895
 C     12  10   2     1.390505842328   118.20194549   180.88531445
 C     13  10   2     1.390951358463   119.87343067   179.43106551
 C     16  12  10     1.385827906543   120.27452145   359.65697253
 C     14  11   9     1.388564069117   120.99107535   184.10579649
 C     15  11   9     1.392745589083   121.00390293   176.12795176
 C     20  15  11     1.390243718565   120.09396010   359.83578969
 H      3   2   1     1.090259185616   106.52262245   179.90304492
 H      4   3   2     1.094055790326   109.86046696   314.06245067
 H      4   3   2     1.091190082056   108.21257213   198.01113631
 H      5   3   2     1.091745771931   106.43379595   178.19061175
 H      5   3   2     1.090698208229   110.70678661    62.64804960
 H      6   1   2     1.099770817544   110.35632217   222.39014681
 H      6   1   2     1.087818806068   109.53979347   104.78934117
 H      7   1   2     1.092193393616   108.22456377   274.58513985
 H      7   1   2     1.099468444190   111.45587784   157.17660010
 H      8   1   2     1.093471993646   106.80617236    65.18445416
 H      8   1   2     1.099656937565   112.03452581   181.97520031
 H      9   8   1     1.091935834127   110.64494700   279.40635987
 H      9   8   1     1.093010514508   108.12350654   163.43524285
 H     12  10   2     1.083588234813   120.76442466     1.89450658
 H     14  11   9     1.086223925959   119.49819374     4.46244041
 H     15  11   9     1.085683416407   119.50535797   355.24006468
 H     16  12  10     1.083682970654   119.71540270   180.01541719
 H     18  16  12     1.084929536193   119.51871393   180.29910339
 H     19  14  11     1.084234640840   119.86481760   180.11165826
 H     20  15  11     1.084998748985   119.79625983   178.64735193
 H     21  20  15     1.084186821186   120.35774834   179.34440958
 H      2   1   3     1.046312339454    32.15313317   179.56256942
 H      2   1   3     1.022018106085   116.07571424   256.64657944
 H     17  13  10     1.070000002747   120.90177851   179.71960308
 C     13  10   2     1.539999997227   120.30261368   358.94372651
 H     46  13  10     1.070000001037   109.47120255    74.51287910
 H     46  13  10     1.070000005179   109.47120257   194.51289340
 H     46  13  10     1.069999996936   109.47123148   314.51288615

---------------------------
INTERNAL COORDINATES (A.U.)
---------------------------
 N      0   0   0     0.000000000000     0.00000000     0.00000000
 N      1   0   0     5.073687578134     0.00000000     0.00000000
 C      2   1   0     2.869317234539    70.12626977     0.00000000
 C      3   2   1     2.885948586575   107.87575083   299.78318569
 C      3   2   1     2.882615799438   109.34256797    59.89574233
 C      1   2   3     2.762232587454    92.09775234    48.84313271
 C      1   2   3     2.759506494288    86.39610987   299.32862279
 C      1   2   3     2.754825862685   134.51267380   178.01255426
 C      8   1   2     2.906354235569   111.64645539   305.85186633
 C      2   1   3     2.763724445749   127.80616677   107.64873891
 C      9   8   1     2.854745989795   111.63969493    41.63937385
 C     10   2   1     2.608812631398   119.34586979    19.73798138
 C     10   2   1     2.619501608204   118.53167822   200.14360162
 C     11   9   8     2.638585490028   120.68228222    65.19977379
 C     11   9   8     2.632176771559   120.94276350   248.21846895
 C     12  10   2     2.627675229618   118.20194549   180.88531445
 C     13  10   2     2.628517133101   119.87343067   179.43106551
 C     16  12  10     2.618835212112   120.27452145   359.65697253
 C     14  11   9     2.624005810034   120.99107535   184.10579649
 C     15  11   9     2.631907737594   121.00390293   176.12795176
 C     20  15  11     2.627179887492   120.09396010   359.83578969
 H      3   2   1     2.060291275807   106.52262245   179.90304492
 H      4   3   2     2.067465818946   109.86046696   314.06245067
 H      4   3   2     2.062050415137   108.21257213   198.01113631
 H      5   3   2     2.063100516816   106.43379595   178.19061175
 H      5   3   2     2.061120908311   110.70678661    62.64804960
 H      6   1   2     2.078265655236   110.35632217   222.39014681
 H      6   1   2     2.055679626798   109.53979347   104.78934117
 H      7   1   2     2.063946399212   108.22456377   274.58513985
 H      7   1   2     2.077694252408   111.45587784   157.17660010
 H      8   1   2     2.066362603105   106.80617236    65.18445416
 H      8   1   2     2.078050453264   112.03452581   181.97520031
 H      9   8   1     2.063459682314   110.64494700   279.40635987
 H      9   8   1     2.065490533916   108.12350654   163.43524285
 H     12  10   2     2.047685005736   120.76442466     1.89450658
 H     14  11   9     2.052665740175   119.49819374     4.46244041
 H     15  11   9     2.051644325149   119.50535797   355.24006468
 H     16  12  10     2.047864030531   119.71540270   180.01541719
 H     18  16  12     2.050219698008   119.51871393   180.29910339
 H     19  14  11     2.048906536099   119.86481760   180.11165826
 H     20  15  11     2.050350491229   119.79625983   178.64735193
 H     21  20  15     2.048816170049   120.35774834   179.34440958
 H      2   1   3     1.977243772111    32.15313317   179.56256942
 H      2   1   3     1.931334324409   116.07571424   256.64657944
 H     17  13  10     2.022006968488   120.90177851   179.71960308
 C     13  10   2     2.910178240998   120.30261368   358.94372651
 H     46  13  10     2.022006965256   109.47120255    74.51287910
 H     46  13  10     2.022006973083   109.47120257   194.51289340
 H     46  13  10     2.022006957505   109.47123148   314.51288615

---------------------
BASIS SET INFORMATION
---------------------
There are 3 groups of distinct atoms

 Group   1 Type N   : 11s6p2d1f contracted to 5s3p2d1f pattern {62111/411/11/1}
 Group   2 Type C   : 11s6p2d1f contracted to 5s3p2d1f pattern {62111/411/11/1}
 Group   3 Type H   : 5s1p contracted to 3s1p pattern {311/1}

Atom   0N    basis set group =>   1
Atom   1N    basis set group =>   1
Atom   2C    basis set group =>   2
Atom   3C    basis set group =>   2
Atom   4C    basis set group =>   2
Atom   5C    basis set group =>   2
Atom   6C    basis set group =>   2
Atom   7C    basis set group =>   2
Atom   8C    basis set group =>   2
Atom   9C    basis set group =>   2
Atom  10C    basis set group =>   2
Atom  11C    basis set group =>   2
Atom  12C    basis set group =>   2
Atom  13C    basis set group =>   2
Atom  14C    basis set group =>   2
Atom  15C    basis set group =>   2
Atom  16C    basis set group =>   2
Atom  17C    basis set group =>   2
Atom  18C    basis set group =>   2
Atom  19C    basis set group =>   2
Atom  20C    basis set group =>   2
Atom  21H    basis set group =>   3
Atom  22H    basis set group =>   3
Atom  23H    basis set group =>   3
Atom  24H    basis set group =>   3
Atom  25H    basis set group =>   3
Atom  26H    basis set group =>   3
Atom  27H    basis set group =>   3
Atom  28H    basis set group =>   3
Atom  29H    basis set group =>   3
Atom  30H    basis set group =>   3
Atom  31H    basis set group =>   3
Atom  32H    basis set group =>   3
Atom  33H    basis set group =>   3
Atom  34H    basis set group =>   3
Atom  35H    basis set group =>   3
Atom  36H    basis set group =>   3
Atom  37H    basis set group =>   3
Atom  38H    basis set group =>   3
Atom  39H    basis set group =>   3
Atom  40H    basis set group =>   3
Atom  41H    basis set group =>   3
Atom  42H    basis set group =>   3
Atom  43H    basis set group =>   3
Atom  44H    basis set group =>   3
Atom  45C    basis set group =>   2
Atom  46H    basis set group =>   3
Atom  47H    basis set group =>   3
Atom  48H    basis set group =>   3
---------------------------------
AUXILIARY/J BASIS SET INFORMATION
---------------------------------
There are 3 groups of distinct atoms

 Group   1 Type N   : 12s5p4d2f1g contracted to 6s4p3d1f1g pattern {711111/2111/211/2/1}
 Group   2 Type C   : 12s5p4d2f1g contracted to 6s4p3d1f1g pattern {711111/2111/211/2/1}
 Group   3 Type H   : 5s2p1d contracted to 3s1p1d pattern {311/2/1}

Atom   0N    basis set group =>   1
Atom   1N    basis set group =>   1
Atom   2C    basis set group =>   2
Atom   3C    basis set group =>   2
Atom   4C    basis set group =>   2
Atom   5C    basis set group =>   2
Atom   6C    basis set group =>   2
Atom   7C    basis set group =>   2
Atom   8C    basis set group =>   2
Atom   9C    basis set group =>   2
Atom  10C    basis set group =>   2
Atom  11C    basis set group =>   2
Atom  12C    basis set group =>   2
Atom  13C    basis set group =>   2
Atom  14C    basis set group =>   2
Atom  15C    basis set group =>   2
Atom  16C    basis set group =>   2
Atom  17C    basis set group =>   2
Atom  18C    basis set group =>   2
Atom  19C    basis set group =>   2
Atom  20C    basis set group =>   2
Atom  21H    basis set group =>   3
Atom  22H    basis set group =>   3
Atom  23H    basis set group =>   3
Atom  24H    basis set group =>   3
Atom  25H    basis set group =>   3
Atom  26H    basis set group =>   3
Atom  27H    basis set group =>   3
Atom  28H    basis set group =>   3
Atom  29H    basis set group =>   3
Atom  30H    basis set group =>   3
Atom  31H    basis set group =>   3
Atom  32H    basis set group =>   3
Atom  33H    basis set group =>   3
Atom  34H    basis set group =>   3
Atom  35H    basis set group =>   3
Atom  36H    basis set group =>   3
Atom  37H    basis set group =>   3
Atom  38H    basis set group =>   3
Atom  39H    basis set group =>   3
Atom  40H    basis set group =>   3
Atom  41H    basis set group =>   3
Atom  42H    basis set group =>   3
Atom  43H    basis set group =>   3
Atom  44H    basis set group =>   3
Atom  45C    basis set group =>   2
Atom  46H    basis set group =>   3
Atom  47H    basis set group =>   3
Atom  48H    basis set group =>   3


           ************************************************************
           *        Program running with 8 parallel MPI-processes     *
           *              working on a common directory               *
           ************************************************************
------------------------------------------------------------------------------
                           ORCA GTO INTEGRAL CALCULATION
                           -- RI-GTO INTEGRALS CHOSEN --
------------------------------------------------------------------------------
------------------------------------------------------------------------------
                   ___                                                        
                  /   \      - P O W E R E D   B Y -                         
                 /     \                                                     
                 |  |  |   _    _      __       _____    __    __             
                 |  |  |  | |  | |    /  \     |  _  \  |  |  /  |          
                  \  \/   | |  | |   /    \    | | | |  |  | /  /          
                 / \  \   | |__| |  /  /\  \   | |_| |  |  |/  /          
                |  |  |   |  __  | /  /__\  \  |    /   |      \           
                |  |  |   | |  | | |   __   |  |    \   |  |\   \          
                \     /   | |  | | |  |  |  |  | |\  \  |  | \   \       
                 \___/    |_|  |_| |__|  |__|  |_| \__\ |__|  \__/        
                                                                              
                      - O R C A' S   B I G   F R I E N D -                    
                                      &                                       
                       - I N T E G R A L  F E E D E R -                       
                                                                              
 v1 FN, 2020, v2 2021                                                         
------------------------------------------------------------------------------


Reading SHARK input file desprop_oMe-Fentanyl_exoNProt_72.SHARKINP.tmp ... ok
----------------------
SHARK INTEGRAL PACKAGE
----------------------

Number of atoms                             ...     49
Number of basis functions                   ...    844
Number of shells                            ...    350
Maximum angular momentum                    ...      3
Integral batch strategy                     ... SHARK/LIBINT Hybrid
RI-J (if used) integral strategy            ... SPLIT-RIJ (Revised 2003 algorithm where possible)
Printlevel                                  ...      1
Contraction scheme used                     ... SEGMENTED contraction
Coulomb Range Separation                    ... NOT USED
Exchange Range Separation                   ... Long Range
   Mu parameter                             ...  0.300000
   Scaling (regular/separated)              ...  0.167000  0.833000
Finite Nucleus Model                        ... NOT USED
Auxiliary Coulomb fitting basis             ... AVAILABLE
   # of basis functions in Aux-J            ...   1375
   # of shells in Aux-J                     ...    465
   Maximum angular momentum in Aux-J        ...      4
Auxiliary J/K fitting basis                 ... NOT available
Auxiliary Correlation fitting basis         ... NOT available
Auxiliary 'external' fitting basis          ... NOT available
Integral threshold                          ...     2.500000e-11
Primitive cut-off                           ...     2.500000e-12
Primitive pair pre-selection threshold      ...     2.500000e-12

Calculating pre-screening integrals         ... done (  0.1 sec) Dimension = 350
Organizing shell pair data                  ... done (  0.6 sec)
Shell pair information
Total number of shell pairs                 ...     61425
Shell pairs after pre-screening             ...     48439
Total number of primitive shell pairs       ...    182068
Primitive shell pairs kept                  ...     96669
          la=0 lb=0:  14055 shell pairs
          la=1 lb=0:  14229 shell pairs
          la=1 lb=1:   3670 shell pairs
          la=2 lb=0:   6591 shell pairs
          la=2 lb=1:   3405 shell pairs
          la=2 lb=2:    824 shell pairs
          la=3 lb=0:   3086 shell pairs
          la=3 lb=1:   1626 shell pairs
          la=3 lb=2:    758 shell pairs
          la=3 lb=3:    195 shell pairs

Calculating one electron integrals          ... done (  0.1 sec)
Calculating RI/J V-Matrix + Cholesky decomp.... done (  0.1 sec)
Calculating Nuclear repulsion               ... done (  0.0 sec) ENN=   1946.077924678111 Eh

SHARK setup successfully completed in   1.6 seconds

Maximum memory used throughout the entire GTOINT-calculation: 69.6 MB
[1704171407.321327] [gra337:25920:0]          mpool.c:42   UCX  WARN  object 0xa8ae400 was not returned to mpool ucp_requests
[1704171407.321365] [gra337:25920:0]          mpool.c:42   UCX  WARN  object 0xa8ae5c0 was not returned to mpool ucp_requests
[1704171407.321378] [gra337:25920:0]          mpool.c:42   UCX  WARN  object 0xa8ae780 was not returned to mpool ucp_requests
[1704171407.321392] [gra337:25920:0]          mpool.c:42   UCX  WARN  object 0xa8ae940 was not returned to mpool ucp_requests
[1704171407.321403] [gra337:25920:0]          mpool.c:42   UCX  WARN  object 0xa8aeb00 was not returned to mpool ucp_requests
[1704171407.321414] [gra337:25920:0]          mpool.c:42   UCX  WARN  object 0xa8aecc0 was not returned to mpool ucp_requests
[1704171407.321425] [gra337:25920:0]          mpool.c:42   UCX  WARN  object 0xa8aee80 was not returned to mpool ucp_requests
[1704171407.389438] [gra337:25922:0]          mpool.c:42   UCX  WARN  object 0xa85e040 was not returned to mpool ucp_requests
[1704171407.389473] [gra337:25922:0]          mpool.c:42   UCX  WARN  object 0xa85e200 was not returned to mpool ucp_requests
[1704171407.389486] [gra337:25922:0]          mpool.c:42   UCX  WARN  object 0xa85e3c0 was not returned to mpool ucp_requests
[1704171407.389497] [gra337:25922:0]          mpool.c:42   UCX  WARN  object 0xa85e580 was not returned to mpool ucp_requests
[1704171407.389509] [gra337:25922:0]          mpool.c:42   UCX  WARN  object 0xa85e740 was not returned to mpool ucp_requests
[1704171407.389519] [gra337:25922:0]          mpool.c:42   UCX  WARN  object 0xa85e900 was not returned to mpool ucp_requests
[1704171407.389529] [gra337:25922:0]          mpool.c:42   UCX  WARN  object 0xa85eac0 was not returned to mpool ucp_requests
[1704171407.389548] [gra337:25922:0]          mpool.c:42   UCX  WARN  object 0xa85ec80 was not returned to mpool ucp_requests
[1704171407.389559] [gra337:25922:0]          mpool.c:42   UCX  WARN  object 0xa85ee40 was not returned to mpool ucp_requests
[1704171407.389570] [gra337:25922:0]          mpool.c:42   UCX  WARN  object 0xa85f000 was not returned to mpool ucp_requests
[1704171407.389579] [gra337:25922:0]          mpool.c:42   UCX  WARN  object 0xa85f1c0 was not returned to mpool ucp_requests
[1704171407.394839] [gra337:25924:0]          mpool.c:42   UCX  WARN  object 0xc1d2b40 was not returned to mpool ucp_requests
[1704171407.394873] [gra337:25924:0]          mpool.c:42   UCX  WARN  object 0xc1d2d00 was not returned to mpool ucp_requests
[1704171407.394886] [gra337:25924:0]          mpool.c:42   UCX  WARN  object 0xc1d2ec0 was not returned to mpool ucp_requests
[1704171407.394897] [gra337:25924:0]          mpool.c:42   UCX  WARN  object 0xc1d3080 was not returned to mpool ucp_requests
[1704171407.394907] [gra337:25924:0]          mpool.c:42   UCX  WARN  object 0xc1d3240 was not returned to mpool ucp_requests
[1704171407.394917] [gra337:25924:0]          mpool.c:42   UCX  WARN  object 0xc1d3400 was not returned to mpool ucp_requests
[1704171407.394926] [gra337:25924:0]          mpool.c:42   UCX  WARN  object 0xc1d35c0 was not returned to mpool ucp_requests
[1704171407.394936] [gra337:25924:0]          mpool.c:42   UCX  WARN  object 0xc1d3780 was not returned to mpool ucp_requests
[1704171407.394946] [gra337:25924:0]          mpool.c:42   UCX  WARN  object 0xc1d3940 was not returned to mpool ucp_requests
[1704171407.394955] [gra337:25924:0]          mpool.c:42   UCX  WARN  object 0xc1d3b00 was not returned to mpool ucp_requests
[1704171407.394965] [gra337:25924:0]          mpool.c:42   UCX  WARN  object 0xc1d3cc0 was not returned to mpool ucp_requests
[1704171407.394975] [gra337:25924:0]          mpool.c:42   UCX  WARN  object 0xc1d3e80 was not returned to mpool ucp_requests
[1704171407.398124] [gra337:25923:0]          mpool.c:42   UCX  WARN  object 0xbb2ee00 was not returned to mpool ucp_requests
[1704171407.398166] [gra337:25923:0]          mpool.c:42   UCX  WARN  object 0xbb2efc0 was not returned to mpool ucp_requests
[1704171407.398178] [gra337:25923:0]          mpool.c:42   UCX  WARN  object 0xbb2f180 was not returned to mpool ucp_requests
[1704171407.398189] [gra337:25923:0]          mpool.c:42   UCX  WARN  object 0xbb2f340 was not returned to mpool ucp_requests
[1704171407.398201] [gra337:25923:0]          mpool.c:42   UCX  WARN  object 0xbb2f500 was not returned to mpool ucp_requests
[1704171407.398226] [gra337:25923:0]          mpool.c:42   UCX  WARN  object 0xbb2f6c0 was not returned to mpool ucp_requests
[1704171407.398237] [gra337:25923:0]          mpool.c:42   UCX  WARN  object 0xbb2f880 was not returned to mpool ucp_requests
[1704171407.398247] [gra337:25923:0]          mpool.c:42   UCX  WARN  object 0xbb2fa40 was not returned to mpool ucp_requests
[1704171407.398257] [gra337:25923:0]          mpool.c:42   UCX  WARN  object 0xbb2fc00 was not returned to mpool ucp_requests
[1704171407.398267] [gra337:25923:0]          mpool.c:42   UCX  WARN  object 0xbb2fdc0 was not returned to mpool ucp_requests
[1704171407.398277] [gra337:25923:0]          mpool.c:42   UCX  WARN  object 0xbb2ff80 was not returned to mpool ucp_requests
[1704171407.398287] [gra337:25923:0]          mpool.c:42   UCX  WARN  object 0xbb30140 was not returned to mpool ucp_requests
[1704171407.398673] [gra337:25925:0]          mpool.c:42   UCX  WARN  object 0xc2b9200 was not returned to mpool ucp_requests
[1704171407.398713] [gra337:25925:0]          mpool.c:42   UCX  WARN  object 0xc2b93c0 was not returned to mpool ucp_requests
[1704171407.398727] [gra337:25925:0]          mpool.c:42   UCX  WARN  object 0xc2b9580 was not returned to mpool ucp_requests
[1704171407.398739] [gra337:25925:0]          mpool.c:42   UCX  WARN  object 0xc2b9740 was not returned to mpool ucp_requests
[1704171407.398758] [gra337:25925:0]          mpool.c:42   UCX  WARN  object 0xc2b9900 was not returned to mpool ucp_requests
[1704171407.398769] [gra337:25925:0]          mpool.c:42   UCX  WARN  object 0xc2b9ac0 was not returned to mpool ucp_requests
[1704171407.398780] [gra337:25925:0]          mpool.c:42   UCX  WARN  object 0xc2b9c80 was not returned to mpool ucp_requests
[1704171407.398790] [gra337:25925:0]          mpool.c:42   UCX  WARN  object 0xc2b9e40 was not returned to mpool ucp_requests
[1704171407.398801] [gra337:25925:0]          mpool.c:42   UCX  WARN  object 0xc2ba000 was not returned to mpool ucp_requests
[1704171407.398812] [gra337:25925:0]          mpool.c:42   UCX  WARN  object 0xc2ba1c0 was not returned to mpool ucp_requests
[1704171407.398706] [gra337:25921:0]          mpool.c:42   UCX  WARN  object 0xaa69e00 was not returned to mpool ucp_requests
[1704171407.398898] [gra337:25926:0]          mpool.c:42   UCX  WARN  object 0xb35bd80 was not returned to mpool ucp_requests
[1704171407.398930] [gra337:25926:0]          mpool.c:42   UCX  WARN  object 0xb35bf40 was not returned to mpool ucp_requests
[1704171407.398951] [gra337:25926:0]          mpool.c:42   UCX  WARN  object 0xb35c100 was not returned to mpool ucp_requests
[1704171407.398964] [gra337:25926:0]          mpool.c:42   UCX  WARN  object 0xb35c2c0 was not returned to mpool ucp_requests
[1704171407.398976] [gra337:25926:0]          mpool.c:42   UCX  WARN  object 0xb35c480 was not returned to mpool ucp_requests
[1704171407.398987] [gra337:25926:0]          mpool.c:42   UCX  WARN  object 0xb35c640 was not returned to mpool ucp_requests
[1704171407.398998] [gra337:25926:0]          mpool.c:42   UCX  WARN  object 0xb35c800 was not returned to mpool ucp_requests
[1704171407.399008] [gra337:25926:0]          mpool.c:42   UCX  WARN  object 0xb35c9c0 was not returned to mpool ucp_requests
[1704171407.399019] [gra337:25926:0]          mpool.c:42   UCX  WARN  object 0xb35cb80 was not returned to mpool ucp_requests
[1704171407.399030] [gra337:25926:0]          mpool.c:42   UCX  WARN  object 0xb35cd40 was not returned to mpool ucp_requests
[1704171407.399112] [gra337:25921:0]          mpool.c:42   UCX  WARN  object 0xaa69fc0 was not returned to mpool ucp_requests
[1704171407.399222] [gra337:25921:0]          mpool.c:42   UCX  WARN  object 0xaa6a180 was not returned to mpool ucp_requests
[1704171407.399331] [gra337:25921:0]          mpool.c:42   UCX  WARN  object 0xaa6a340 was not returned to mpool ucp_requests
[1704171407.399438] [gra337:25921:0]          mpool.c:42   UCX  WARN  object 0xaa6a500 was not returned to mpool ucp_requests
[1704171407.399546] [gra337:25921:0]          mpool.c:42   UCX  WARN  object 0xaa6a6c0 was not returned to mpool ucp_requests
[1704171407.399667] [gra337:25921:0]          mpool.c:42   UCX  WARN  object 0xaa6a880 was not returned to mpool ucp_requests
[1704171407.399807] [gra337:25921:0]          mpool.c:42   UCX  WARN  object 0xaa6aa40 was not returned to mpool ucp_requests
[1704171407.399916] [gra337:25921:0]          mpool.c:42   UCX  WARN  object 0xaa6ac00 was not returned to mpool ucp_requests
[1704171407.400024] [gra337:25921:0]          mpool.c:42   UCX  WARN  object 0xaa6adc0 was not returned to mpool ucp_requests
[1704171407.400132] [gra337:25921:0]          mpool.c:42   UCX  WARN  object 0xaa6af80 was not returned to mpool ucp_requests


           ************************************************************
           *        Program running with 8 parallel MPI-processes     *
           *              working on a common directory               *
           ************************************************************
-------------------------------------------------------------------------------
                                 ORCA SCF
-------------------------------------------------------------------------------

------------
SCF SETTINGS
------------
Hamiltonian:
 Density Functional     Method          .... DFT(GTOs)
 Exchange Functional    Exchange        .... WB97X-V
 Correlation Functional Correlation     .... WB97X-V
 Gradients option       PostSCFGGA      .... off
 Hybrid DFT is turned on
   Fraction HF Exchange ScalHFX         ....  0.167000
   Scaling of DF-GGA-X  ScalDFX         ....  0.000000
   Scaling of DF-GGA-C  ScalDFC         ....  1.000000
   Scaling of DF-LDA-C  ScalLDAC        ....  1.000000
   Perturbative correction              ....  0.000000
   Density functional embedding theory  .... OFF
 Long-range corrected/Screened/Range-Separated Hybrid DFT is turned on
   Amount of maximum screened exact exchange              ....  0.833000
   Range separation parameter mu (erf(mu*r12)/r12)        ....  0.300000
 RI-approximation to the Coulomb term is turned on
   Number of AuxJ basis functions       .... 1375
   RIJ-COSX (HFX calculated with COS-X)).... on


General Settings:
 Integral files         IntName         .... desprop_oMe-Fentanyl_exoNProt_72
 Hartree-Fock type      HFTyp           .... RHF
 Total Charge           Charge          ....    1
 Multiplicity           Mult            ....    1
 Number of Electrons    NEL             ....  160
 Basis Dimension        Dim             ....  844
 Nuclear Repulsion      ENuc            ....   1946.0779246781 Eh

Convergence Acceleration:
 DIIS                   CNVDIIS         .... on
   Start iteration      DIISMaxIt       ....    12
   Startup error        DIISStart       ....  0.200000
   # of expansion vecs  DIISMaxEq       ....     5
   Bias factor          DIISBfac        ....   1.050
   Max. coefficient     DIISMaxC        ....  10.000
 Trust-Rad. Augm. Hess. CNVTRAH         .... auto
   Auto Start mean grad. ratio tolernc. ....  1.125000
   Auto Start start iteration           ....    20
   Auto Start num. interpolation iter.  ....    10
   Max. Number of Micro iterations      ....    16
   Max. Number of Macro iterations      .... Maxiter - #DIIS iter
   Number of Davidson start vectors     ....     2
   Converg. threshold I  (grad. norm)   ....   1.000e-05
   Converg. threshold II (energy diff.) ....   1.000e-08
   Grad. Scal. Fac. for Micro threshold ....   0.100
   Minimum threshold for Micro iter.    ....   0.010
   NR start threshold (gradient norm)   ....   0.001
   Initial trust radius                 ....   0.400
   Minimum AH scaling param. (alpha)    ....   1.000
   Maximum AH scaling param. (alpha)    .... 1000.000
   Orbital update algorithm             .... Taylor
   White noise on init. David. guess    .... on
   Maximum white noise                  ....   0.010
   Quad. conv. algorithm                .... NR
 SOSCF                  CNVSOSCF        .... on
   Start iteration      SOSCFMaxIt      ....   150
   Startup grad/error   SOSCFStart      ....  0.003300
 Level Shifting         CNVShift        .... on
   Level shift para.    LevelShift      ....    0.2500
   Turn off err/grad.   ShiftErr        ....    0.0010
 Zerner damping         CNVZerner       .... off
 Static damping         CNVDamp         .... on
   Fraction old density DampFac         ....    0.7000
   Max. Damping (<1)    DampMax         ....    0.9800
   Min. Damping (>=0)   DampMin         ....    0.0000
   Turn off err/grad.   DampErr         ....    0.1000
 Fernandez-Rico         CNVRico         .... off

SCF Procedure:
 Maximum # iterations   MaxIter         ....   125
 SCF integral mode      SCFMode         .... Direct
   Integral package                     .... SHARK and LIBINT hybrid scheme
 Reset frequency        DirectResetFreq ....    20
 Integral Threshold     Thresh          ....  2.500e-11 Eh
 Primitive CutOff       TCut            ....  2.500e-12 Eh

Convergence Tolerance:
 Convergence Check Mode ConvCheckMode   .... Total+1el-Energy
 Convergence forced     ConvForced      .... 0
 Energy Change          TolE            ....  1.000e-08 Eh
 1-El. energy change                    ....  1.000e-05 Eh
 Orbital Gradient       TolG            ....  1.000e-05
 Orbital Rotation angle TolX            ....  1.000e-05
 DIIS Error             TolErr          ....  5.000e-07


Diagonalization of the overlap matrix:
Smallest eigenvalue                        ... 4.932e-06
Time for diagonalization                   ...    0.254 sec
Threshold for overlap eigenvalues          ... 1.000e-08
Number of eigenvalues below threshold      ... 0
Time for construction of square roots      ...    0.129 sec
Total time needed                          ...    0.389 sec

Time for model grid setup =    0.501 sec

------------------------------
INITIAL GUESS: MODEL POTENTIAL
------------------------------
Loading Hartree-Fock densities                     ... done
Calculating cut-offs                               ... done
Initializing the effective Hamiltonian             ... done
Setting up the integral package (SHARK)            ... done
Starting the Coulomb interaction                   ... done (   1.1 sec)
Reading the grid                                   ... done
Mapping shells                                     ... done
Starting the XC term evaluation                    ... done (   0.7 sec)
  promolecular density results
     # of electrons  =    160.974778494
     EX              =    -82.416378436
     EC              =     -6.577887324
     EX+EC           =    -88.994265760
Transforming the Hamiltonian                       ... done (   0.1 sec)
Diagonalizing the Hamiltonian                      ... done (   0.2 sec)
Back transforming the eigenvectors                 ... done (   0.0 sec)
Now organizing SCF variables                       ... done
                      ------------------
                      INITIAL GUESS DONE (   2.6 sec)
                      ------------------
-------------------
DFT GRID GENERATION
-------------------

General Integration Accuracy     IntAcc      ... 4.959
Radial Grid Type                 RadialGrid  ... OptM3 with GC (2021)
Angular Grid (max. ang.)         AngularGrid ... 6 (Lebedev-590)
Angular grid pruning method      GridPruning ... 4 (adaptive)
Weight generation scheme         WeightScheme... Becke
Basis function cutoff            BFCut       ... 1.0000e-11
Integration weight cutoff        WCut        ... 1.0000e-14
Angular grids for H and He will be reduced by one unit
Partially contracted basis set               ... off
Rotationally invariant grid construction     ... off

Total number of grid points                  ...   533569
Total number of batches                      ...     8362
Average number of points per batch           ...       63
Average number of grid points per atom       ...    10889
Time for grid setup =    7.748 sec

--------------------
COSX GRID GENERATION
--------------------

GRIDX 1
-------
General Integration Accuracy     IntAcc      ... 4.020
Radial Grid Type                 RadialGrid  ... OptM3 with GC (2021)
Angular Grid (max. ang.)         AngularGrid ... 2 (Lebedev-110)
Angular grid pruning method      GridPruning ... 4 (adaptive)
Weight generation scheme         WeightScheme... Becke
Basis function cutoff            BFCut       ... 1.0000e-11
Integration weight cutoff        WCut        ... 1.0000e-14
Angular grids for H and He will be reduced by one unit
Partially contracted basis set               ... on
Rotationally invariant grid construction     ... off

Total number of grid points                  ...    57200
Total number of batches                      ...      923
Average number of points per batch           ...       61
Average number of grid points per atom       ...     1167
UseSFitting                                  ... on

GRIDX 2
-------
General Integration Accuracy     IntAcc      ... 4.338
Radial Grid Type                 RadialGrid  ... OptM3 with GC (2021)
Angular Grid (max. ang.)         AngularGrid ... 3 (Lebedev-194)
Angular grid pruning method      GridPruning ... 4 (adaptive)
Weight generation scheme         WeightScheme... Becke
Basis function cutoff            BFCut       ... 1.0000e-11
Integration weight cutoff        WCut        ... 1.0000e-14
Angular grids for H and He will be reduced by one unit
Partially contracted basis set               ... on
Rotationally invariant grid construction     ... off

Total number of grid points                  ...   124060
Total number of batches                      ...     1960
Average number of points per batch           ...       63
Average number of grid points per atom       ...     2532
UseSFitting                                  ... on

GRIDX 3
-------
General Integration Accuracy     IntAcc      ... 4.871
Radial Grid Type                 RadialGrid  ... OptM3 with GC (2021)
Angular Grid (max. ang.)         AngularGrid ... 4 (Lebedev-302)
Angular grid pruning method      GridPruning ... 4 (adaptive)
Weight generation scheme         WeightScheme... Becke
Basis function cutoff            BFCut       ... 1.0000e-11
Integration weight cutoff        WCut        ... 1.0000e-14
Angular grids for H and He will be reduced by one unit
Partially contracted basis set               ... on
Rotationally invariant grid construction     ... off

Total number of grid points                  ...   236949
Total number of batches                      ...     3728
Average number of points per batch           ...       63
Average number of grid points per atom       ...     4836
UseSFitting                                  ... on

Time for X-Grid setup             =    5.856 sec

--------------
SCF ITERATIONS
--------------
ITER       Energy         Delta-E        Max-DP      RMS-DP      [F,P]     Damp
               ***  Starting incremental Fock matrix formation  ***
  0   -888.1827660706   0.000000000000 0.05625220  0.00063223  0.3107923 0.7000
  1   -888.2376542047  -0.054888134107 0.04890563  0.00056040  0.2099075 0.7000
                               ***Turning on DIIS***
  2   -888.2702803350  -0.032626130234 0.03952034  0.00043345  0.1430325 0.7000
  3   -888.2917163872  -0.021436052193 0.11407772  0.00115829  0.0981104 0.0000
  4   -888.3426908380  -0.050974450809 0.01536477  0.00015380  0.0056137 0.0000
                      *** Initiating the SOSCF procedure ***
                           *** Shutting down DIIS ***
                      *** Re-Reading the Fockian *** 
                      *** Removing any level shift *** 
ITER      Energy       Delta-E        Grad      Rot      Max-DP    RMS-DP
  5   -888.34306776  -0.0003769247  0.000463  0.000463  0.005471  0.000065
               *** Restarting incremental Fock matrix formation ***
  6   -888.34316004  -0.0000922819  0.000318  0.000767  0.003859  0.000046
  7   -888.34317926  -0.0000192167  0.000113  0.000493  0.001610  0.000025
  8   -888.34318124  -0.0000019789  0.000140  0.000158  0.001008  0.000010
  9   -888.34318274  -0.0000014950  0.000022  0.000053  0.000784  0.000007
 10   -888.34318278  -0.0000000492  0.000019  0.000042  0.000291  0.000003
 11   -888.34318283  -0.0000000412  0.000003  0.000015  0.000294  0.000003
                  ***Gradient check signals convergence***
              ***Rediagonalizing the Fockian in SOSCF/NRSCF***

               *****************************************************
               *                     SUCCESS                       *
               *           SCF CONVERGED AFTER  12 CYCLES          *
               *****************************************************

Old exchange energy                            =    -41.941218486 Eh
New exchange energy                            =    -41.941214446 Eh
Exchange energy change after final integration =      0.000004039 Eh
Total energy after final integration           =   -888.343178765 Eh
Final COS-X integration done in                =   156.003 sec

----------------
TOTAL SCF ENERGY
----------------

Total Energy       :         -888.34317876 Eh          -24173.04683 eV

Components:
Nuclear Repulsion  :         1946.07792468 Eh           52955.47253 eV
Electronic Energy  :        -2834.42110344 Eh          -77128.51936 eV
One Electron Energy:        -5045.79395751 Eh         -137303.03394 eV
Two Electron Energy:         2211.37285406 Eh           60174.51457 eV
Max COSX asymmetry :            0.00000037 Eh               0.00001 eV

Virial components:
Potential Energy   :        -1772.71620109 Eh          -48238.06021 eV
Kinetic Energy     :          884.37302232 Eh           24065.01338 eV
Virial Ratio       :            2.00448923


DFT components:
N(Alpha)           :       79.999979749372 electrons
N(Beta)            :       79.999979749372 electrons
N(Total)           :      159.999959498744 electrons
E(X)               :      -84.454989123026 Eh       
E(C)               :       -6.582397311237 Eh       
E(XC)              :      -91.037386434264 Eh       
DFET-embed. en.    :        0.000000000000 Eh       

---------------
SCF CONVERGENCE
---------------

  Last Energy change         ...    2.1316e-08  Tolerance :   1.0000e-08
  Last MAX-Density change    ...    1.9984e-15  Tolerance :   1.0000e-07
  Last RMS-Density change    ...    1.2809e-17  Tolerance :   5.0000e-09
  Last Orbital Gradient      ...    1.1339e-06  Tolerance :   1.0000e-05
  Last Orbital Rotation      ...    4.4628e-06  Tolerance :   1.0000e-05

             **** THE GBW FILE WAS UPDATED (desprop_oMe-Fentanyl_exoNProt_72.gbw) ****
[...]
 48:    862.47   0.000126    0.64  0.000046  (-0.005018  0.003697  0.002595)
 49:    884.04   0.003536   17.87  0.001248  (-0.030594  0.004292  0.017138)
 50:    894.10   0.000576    2.91  0.000201  (-0.008112  0.003127  0.011206)
 51:    905.56   0.000156    0.79  0.000054  (-0.000444  0.005182 -0.005161)
 52:    923.53   0.000260    1.32  0.000088  ( 0.006138 -0.002734 -0.006544)
 53:    940.08   0.002031   10.26  0.000674  ( 0.021956 -0.011308 -0.008021)
 54:    953.33   0.002148   10.86  0.000703  (-0.022259  0.001403  0.014341)
 55:    975.65   0.000589    2.98  0.000188  (-0.013242 -0.000104  0.003621)
 56:    987.59   0.000487    2.46  0.000154  ( 0.002967 -0.011714  0.002805)
 57:    992.55   0.000038    0.19  0.000012  ( 0.001514  0.000477  0.003071)
 58:   1016.10   0.000395    2.00  0.000121  ( 0.006154  0.002639  0.008747)
 59:   1019.69   0.002835   14.33  0.000868  ( 0.021094 -0.020401  0.002562)
 60:   1025.18   0.000206    1.04  0.000063  ( 0.000209 -0.007220  0.003241)
 61:   1026.22   0.001649    8.33  0.000501  ( 0.000385 -0.022360  0.001166)
 62:   1031.17   0.000086    0.44  0.000026  ( 0.001136 -0.000448  0.004966)
 63:   1036.37   0.000006    0.03  0.000002  ( 0.000574 -0.000834  0.000958)
 64:   1043.89   0.000004    0.02  0.000001  (-0.000531  0.000904 -0.000013)
 65:   1046.49   0.001403    7.09  0.000418  ( 0.015922  0.003910  0.012228)
 66:   1068.39   0.000274    1.38  0.000080  (-0.007950 -0.002853  0.002922)
 67:   1071.39   0.003979   20.11  0.001159  ( 0.029757 -0.011420 -0.011959)
 68:   1073.37   0.000308    1.55  0.000089  ( 0.000326 -0.008977 -0.002952)
 69:   1088.75   0.000768    3.88  0.000220  ( 0.007911 -0.005603  0.011236)
 70:   1114.71   0.000377    1.91  0.000106  (-0.000213 -0.009664 -0.003479)
 71:   1128.60   0.003407   17.22  0.000942  ( 0.024151  0.002955 -0.018710)
 72:   1132.31   0.007440   37.60  0.002051  (-0.045215 -0.001930  0.001558)
 73:   1156.70   0.001100    5.56  0.000297  ( 0.015568 -0.003114  0.006685)
 74:   1169.02   0.001629    8.23  0.000435  ( 0.004713  0.008793  0.018311)
 75:   1183.70   0.000141    0.71  0.000037  (-0.000998  0.001357  0.005848)
 76:   1189.99   0.000443    2.24  0.000116  (-0.007601 -0.003073  0.006990)
 77:   1205.61   0.006553   33.12  0.001696  ( 0.015854  0.033556 -0.017857)
 78:   1213.74   0.000340    1.72  0.000087  (-0.008236  0.004420 -0.000197)
 79:   1216.90   0.001863    9.42  0.000478  (-0.013482  0.017144  0.001448)
 80:   1218.44   0.000892    4.51  0.000228  ( 0.007201  0.008173 -0.010473)
 81:   1220.52   0.001245    6.29  0.000318  ( 0.011221  0.013875 -0.000051)
 82:   1243.44   0.000224    1.13  0.000056  (-0.001961 -0.004793  0.005431)
 83:   1264.72   0.001820    9.20  0.000449  (-0.009591  0.009425 -0.016378)
 84:   1271.26   0.000650    3.28  0.000159  (-0.006276  0.009213  0.005933)
 85:   1281.03   0.000866    4.38  0.000211  ( 0.012673 -0.005119 -0.004916)
 86:   1288.78   0.003054   15.43  0.000739  (-0.021348  0.016786  0.001375)
 87:   1303.79   0.000310    1.57  0.000074  ( 0.004870  0.002812  0.006532)
 88:   1318.35   0.000495    2.50  0.000117  ( 0.005128  0.001678 -0.009388)
 89:   1323.27   0.002004   10.13  0.000473  ( 0.021555 -0.002812  0.000157)
 90:   1327.12   0.002852   14.41  0.000671  ( 0.017693 -0.008436 -0.016927)
 91:   1341.16   0.000385    1.95  0.000090  (-0.005254  0.005715 -0.005414)
 92:   1356.78   0.001814    9.17  0.000417  (-0.014033  0.014842 -0.000332)
 93:   1366.19   0.000305    1.54  0.000070  ( 0.005084  0.002112  0.006267)
 94:   1377.31   0.001405    7.10  0.000318  (-0.005680  0.011017  0.012838)
 95:   1384.17   0.001848    9.34  0.000417  (-0.011715  0.015804 -0.005453)
 96:   1395.17   0.000748    3.78  0.000167  ( 0.002820 -0.012602  0.000714)
 97:   1401.65   0.001352    6.83  0.000301  ( 0.008266  0.010932 -0.010641)
 98:   1413.38   0.012455   62.94  0.002750  ( 0.051259 -0.010980 -0.001399)
 99:   1423.33   0.006677   33.74  0.001464  (-0.026778  0.024649  0.011797)
100:   1432.37   0.003205   16.19  0.000698  (-0.019451  0.012708  0.012583)
101:   1438.19   0.003001   15.16  0.000651  (-0.000202  0.022652 -0.011745)
102:   1447.17   0.002142   10.82  0.000462  (-0.017237  0.012540  0.002729)
103:   1489.26   0.000572    2.89  0.000120  ( 0.006434  0.005134 -0.007225)
104:   1497.67   0.003075   15.54  0.000641  ( 0.003169 -0.017009 -0.018478)
105:   1502.96   0.001306    6.60  0.000271  (-0.002776 -0.013767  0.008594)
106:   1503.61   0.000642    3.25  0.000133  ( 0.000748  0.011238  0.002538)
107:   1507.22   0.001563    7.90  0.000324  (-0.004469 -0.015862  0.007210)
108:   1508.58   0.001899    9.59  0.000393  (-0.007464 -0.011531 -0.014285)
109:   1517.24   0.000450    2.27  0.000093  (-0.006828 -0.006115  0.002925)
110:   1520.89   0.003944   19.93  0.000809  ( 0.013946 -0.000599  0.024788)
111:   1526.84   0.003116   15.74  0.000637  (-0.023492 -0.003537  0.008507)
112:   1540.24   0.006156   31.11  0.001247  (-0.032192  0.005000  0.013634)
113:   1553.53   0.002781   14.06  0.000559  (-0.020615  0.002320  0.011328)
114:   1560.87   0.004964   25.09  0.000993  (-0.017102 -0.004223 -0.026119)
115:   1665.92   0.000238    1.20  0.000045  ( 0.003621  0.000579  0.005575)
116:   1670.38   0.015651   79.09  0.002924  (-0.018662 -0.050614 -0.003716)
117:   1679.01   0.005199   26.27  0.000966  (-0.009113 -0.029063 -0.006212)
118:   1689.35   0.001698    8.58  0.000314  (-0.011307  0.010170  0.009079)
119:   1709.65   0.000645    3.26  0.000118  ( 0.005558  0.009214 -0.001427)
120:   3014.20   0.015133   76.48  0.001567  ( 0.036991 -0.011077 -0.008701)
121:   3016.94   0.002666   13.47  0.000276  (-0.000662 -0.004658 -0.015925)
122:   3021.98   0.022801  115.23  0.002355  ( 0.040816  0.005014 -0.025757)
123:   3056.62   0.002765   13.97  0.000282  (-0.012358 -0.003543 -0.010818)
124:   3075.32   0.050307  254.23  0.005105  (-0.059077 -0.039823  0.005362)
125:   3080.33   0.029392  148.54  0.002978  ( 0.044047  0.024122 -0.021348)
126:   3091.07   0.000672    3.40  0.000068  ( 0.007607  0.003072 -0.000728)
127:   3100.61   0.000611    3.09  0.000061  (-0.006863 -0.000297 -0.003776)
128:   3105.75   0.002360   11.93  0.000237  ( 0.007485  0.012953  0.003652)
129:   3108.58   0.003497   17.67  0.000351  (-0.014229  0.006866 -0.010070)
130:   3118.27   0.001644    8.31  0.000164  (-0.001958  0.012503 -0.002084)
131:   3133.36   0.001940    9.81  0.000193  ( 0.007622 -0.005983  0.009968)
132:   3136.35   0.001244    6.29  0.000124  ( 0.007045 -0.008564  0.000900)
133:   3148.75   0.001044    5.28  0.000103  ( 0.005867 -0.006540  0.005127)
134:   3150.31   0.002089   10.55  0.000207  ( 0.013375 -0.000450  0.005272)
135:   3166.33   0.002044   10.33  0.000201  (-0.002332 -0.011190 -0.008412)
136:   3168.91   0.000870    4.40  0.000086  ( 0.008785  0.000319 -0.002903)
137:   3188.20   0.000744    3.76  0.000073  (-0.004733  0.000493  0.007085)
138:   3189.79   0.000561    2.83  0.000055  ( 0.006664 -0.001462  0.002882)
139:   3203.68   0.000405    2.05  0.000039  ( 0.006111 -0.000651  0.001288)
140:   3208.36   0.000286    1.45  0.000028  ( 0.003659  0.001482 -0.003498)
141:   3213.31   0.001062    5.37  0.000103  (-0.004034  0.000726 -0.009294)
142:   3214.27   0.000272    1.38  0.000026  (-0.004632 -0.001906 -0.001155)
143:   3224.27   0.000778    3.93  0.000075  (-0.007927 -0.002657  0.002317)
144:   3225.26   0.000573    2.89  0.000055  (-0.007406 -0.000307  0.000676)
145:   3236.41   0.000144    0.73  0.000014  ( 0.001258 -0.000658  0.003439)
146:   3467.16   0.008984   45.40  0.000809  ( 0.002426 -0.021796 -0.018101)

* The epsilon (eps) is given for a Dirac delta lineshape.
** The dipole moment derivative (T) already includes vibrational overlap.

The first frequency considered to be a vibration is 6
The total number of vibrations considered is 141


--------------------------
THERMOCHEMISTRY AT 298.15K
--------------------------

Temperature         ... 298.15 K
Pressure            ... 1.00 atm
Total Mass          ... 295.45 AMU

Throughout the following assumptions are being made:
  (1) The electronic state is orbitally nondegenerate
  (2) There are no thermally accessible electronically excited states
  (3) Hindered rotations indicated by low frequency modes are not
      treated as such but are treated as vibrations and this may
      cause some error
  (4) All equations used are the standard statistical mechanics
      equations for an ideal gas
  (5) All vibrations are strictly harmonic

freq.      33.65  E(vib)   ...       0.55 
freq.      43.11  E(vib)   ...       0.53 
freq.      49.06  E(vib)   ...       0.53 
freq.      84.36  E(vib)   ...       0.48 
freq.      87.18  E(vib)   ...       0.48 
freq.     103.25  E(vib)   ...       0.46 
freq.     118.36  E(vib)   ...       0.44 
freq.     120.17  E(vib)   ...       0.44 
freq.     134.86  E(vib)   ...       0.42 
freq.     171.84  E(vib)   ...       0.38 
freq.     181.11  E(vib)   ...       0.37 
freq.     204.33  E(vib)   ...       0.35 
freq.     232.41  E(vib)   ...       0.32 
freq.     275.70  E(vib)   ...       0.28 
freq.     286.96  E(vib)   ...       0.27 
freq.     307.83  E(vib)   ...       0.26 
freq.     337.81  E(vib)   ...       0.24 
freq.     360.07  E(vib)   ...       0.22 
freq.     371.22  E(vib)   ...       0.21 
freq.     386.65  E(vib)   ...       0.20 
freq.     423.47  E(vib)   ...       0.18 
freq.     437.58  E(vib)   ...       0.17 
freq.     453.04  E(vib)   ...       0.16 
freq.     469.16  E(vib)   ...       0.16 
freq.     497.81  E(vib)   ...       0.14 
freq.     509.99  E(vib)   ...       0.14 
freq.     522.38  E(vib)   ...       0.13 
freq.     536.84  E(vib)   ...       0.12 
freq.     567.38  E(vib)   ...       0.11 
freq.     618.24  E(vib)   ...       0.09 
freq.     631.22  E(vib)   ...       0.09 
freq.     637.90  E(vib)   ...       0.09 
freq.     720.21  E(vib)   ...       0.07 
freq.     734.06  E(vib)   ...       0.06 
freq.     740.49  E(vib)   ...       0.06 
freq.     775.52  E(vib)   ...       0.05 
freq.     784.07  E(vib)   ...       0.05 
freq.     790.34  E(vib)   ...       0.05 
freq.     793.11  E(vib)   ...       0.05 
freq.     802.78  E(vib)   ...       0.05 
freq.     830.39  E(vib)   ...       0.04 
freq.     849.65  E(vib)   ...       0.04 
freq.     862.47  E(vib)   ...       0.04 
freq.     884.04  E(vib)   ...       0.04 
freq.     894.10  E(vib)   ...       0.03 
freq.     905.56  E(vib)   ...       0.03 
freq.     923.53  E(vib)   ...       0.03 
freq.     940.08  E(vib)   ...       0.03 
freq.     953.33  E(vib)   ...       0.03 
freq.     975.65  E(vib)   ...       0.03 
freq.     987.59  E(vib)   ...       0.02 
freq.     992.55  E(vib)   ...       0.02 
freq.    1016.10  E(vib)   ...       0.02 
freq.    1019.69  E(vib)   ...       0.02 
freq.    1025.18  E(vib)   ...       0.02 
freq.    1026.22  E(vib)   ...       0.02 
freq.    1031.17  E(vib)   ...       0.02 
freq.    1036.37  E(vib)   ...       0.02 
freq.    1043.89  E(vib)   ...       0.02 
freq.    1046.49  E(vib)   ...       0.02 
freq.    1068.39  E(vib)   ...       0.02 
freq.    1071.39  E(vib)   ...       0.02 
freq.    1073.37  E(vib)   ...       0.02 
freq.    1088.75  E(vib)   ...       0.02 
freq.    1114.71  E(vib)   ...       0.01 
freq.    1128.60  E(vib)   ...       0.01 
freq.    1132.31  E(vib)   ...       0.01 
freq.    1156.70  E(vib)   ...       0.01 
freq.    1169.02  E(vib)   ...       0.01 
freq.    1183.70  E(vib)   ...       0.01 
freq.    1189.99  E(vib)   ...       0.01 
freq.    1205.61  E(vib)   ...       0.01 
freq.    1213.74  E(vib)   ...       0.01 
freq.    1216.90  E(vib)   ...       0.01 
freq.    1218.44  E(vib)   ...       0.01 
freq.    1220.52  E(vib)   ...       0.01 
freq.    1243.44  E(vib)   ...       0.01 
freq.    1264.72  E(vib)   ...       0.01 
freq.    1271.26  E(vib)   ...       0.01 
freq.    1281.03  E(vib)   ...       0.01 
freq.    1288.78  E(vib)   ...       0.01 
freq.    1303.79  E(vib)   ...       0.01 
freq.    1318.35  E(vib)   ...       0.01 
freq.    1323.27  E(vib)   ...       0.01 
freq.    1327.12  E(vib)   ...       0.01 
freq.    1341.16  E(vib)   ...       0.01 
freq.    1356.78  E(vib)   ...       0.01 
freq.    1366.19  E(vib)   ...       0.01 
freq.    1377.31  E(vib)   ...       0.01 
freq.    1384.17  E(vib)   ...       0.00 
freq.    1395.17  E(vib)   ...       0.00 
freq.    1401.65  E(vib)   ...       0.00 
freq.    1413.38  E(vib)   ...       0.00 
freq.    1423.33  E(vib)   ...       0.00 
freq.    1432.37  E(vib)   ...       0.00 
freq.    1438.19  E(vib)   ...       0.00 
freq.    1447.17  E(vib)   ...       0.00 
freq.    1489.26  E(vib)   ...       0.00 
freq.    1497.67  E(vib)   ...       0.00 
freq.    1502.96  E(vib)   ...       0.00 
freq.    1503.61  E(vib)   ...       0.00 
freq.    1507.22  E(vib)   ...       0.00 
freq.    1508.58  E(vib)   ...       0.00 
freq.    1517.24  E(vib)   ...       0.00 
freq.    1520.89  E(vib)   ...       0.00 
freq.    1526.84  E(vib)   ...       0.00 
freq.    1540.24  E(vib)   ...       0.00 
freq.    1553.53  E(vib)   ...       0.00 
freq.    1560.87  E(vib)   ...       0.00 
freq.    1665.92  E(vib)   ...       0.00 
freq.    1670.38  E(vib)   ...       0.00 
freq.    1679.01  E(vib)   ...       0.00 
freq.    1689.35  E(vib)   ...       0.00 
freq.    1709.65  E(vib)   ...       0.00 
freq.    3014.20  E(vib)   ...       0.00 
freq.    3016.94  E(vib)   ...       0.00 
freq.    3021.98  E(vib)   ...       0.00 
freq.    3056.62  E(vib)   ...       0.00 
freq.    3075.32  E(vib)   ...       0.00 
freq.    3080.33  E(vib)   ...       0.00 
freq.    3091.07  E(vib)   ...       0.00 
freq.    3100.61  E(vib)   ...       0.00 
freq.    3105.75  E(vib)   ...       0.00 
freq.    3108.58  E(vib)   ...       0.00 
freq.    3118.27  E(vib)   ...       0.00 
freq.    3133.36  E(vib)   ...       0.00 
freq.    3136.35  E(vib)   ...       0.00 
freq.    3148.75  E(vib)   ...       0.00 
freq.    3150.31  E(vib)   ...       0.00 
freq.    3166.33  E(vib)   ...       0.00 
freq.    3168.91  E(vib)   ...       0.00 
freq.    3188.20  E(vib)   ...       0.00 
freq.    3189.79  E(vib)   ...       0.00 
freq.    3203.68  E(vib)   ...       0.00 
freq.    3208.36  E(vib)   ...       0.00 
freq.    3213.31  E(vib)   ...       0.00 
freq.    3214.27  E(vib)   ...       0.00 
freq.    3224.27  E(vib)   ...       0.00 
freq.    3225.26  E(vib)   ...       0.00 
freq.    3236.41  E(vib)   ...       0.00 
freq.    3467.16  E(vib)   ...       0.00 

------------
INNER ENERGY
------------

The inner energy is: U= E(el) + E(ZPE) + E(vib) + E(rot) + E(trans)
    E(el)   - is the total energy from the electronic structure calculation
              = E(kin-el) + E(nuc-el) + E(el-el) + E(nuc-nuc)
    E(ZPE)  - the the zero temperature vibrational energy from the frequency calculation
    E(vib)  - the the finite temperature correction to E(ZPE) due to population
              of excited vibrational states
    E(rot)  - is the rotational thermal energy
    E(trans)- is the translational thermal energy

Summary of contributions to the inner energy U:
Electronic energy                ...   -888.46958313 Eh
Zero point energy                ...      0.44227880 Eh     277.53 kcal/mol
Thermal vibrational correction   ...      0.01654111 Eh      10.38 kcal/mol
Thermal rotational correction    ...      0.00141627 Eh       0.89 kcal/mol
Thermal translational correction ...      0.00141627 Eh       0.89 kcal/mol
-----------------------------------------------------------------------
Total thermal energy                   -888.00793067 Eh


Summary of corrections to the electronic energy:
(perhaps to be used in another calculation)
Total thermal correction                  0.01937366 Eh      12.16 kcal/mol
Non-thermal (ZPE) correction              0.44227880 Eh     277.53 kcal/mol
-----------------------------------------------------------------------
Total correction                          0.46165246 Eh     289.69 kcal/mol


--------
ENTHALPY
--------

The enthalpy is H = U + kB*T
                kB is Boltzmann's constant
Total free energy                 ...   -888.00793067 Eh 
Thermal Enthalpy correction       ...      0.00094421 Eh       0.59 kcal/mol
-----------------------------------------------------------------------
Total Enthalpy                    ...   -888.00698646 Eh


Note: Only C1 symmetry has been detected, increase convergence thresholds 
      if your molecule has a higher symmetry. Symmetry factor of 1.0 is   
      used for the rotational entropy correction. 
 

Note: Rotational entropy computed according to Herzberg 
Infrared and Raman Spectra, Chapter V,1, Van Nostrand Reinhold, 1945 
Point Group:  C1, Symmetry Number:   1  
Rotational constants in cm-1:     0.013820     0.008759     0.007402 

Vibrational entropy computed according to the QRRHO of S. Grimme
Chem.Eur.J. 2012 18 9955


-------
ENTROPY
-------

The entropy contributions are T*S = T*(S(el)+S(vib)+S(rot)+S(trans))
     S(el)   - electronic entropy
     S(vib)  - vibrational entropy
     S(rot)  - rotational entropy
     S(trans)- translational entropy
The entropies will be listed as multiplied by the temperature to get
units of energy

Electronic entropy                ...      0.00000000 Eh      0.00 kcal/mol
Vibrational entropy               ...      0.02867912 Eh     18.00 kcal/mol
Rotational entropy                ...      0.01608486 Eh     10.09 kcal/mol
Translational entropy             ...      0.02040553 Eh     12.80 kcal/mol
-----------------------------------------------------------------------
Final entropy term                ...      0.06516952 Eh     40.89 kcal/mol

In case the symmetry of your molecule has not been determined correctly
or in case you have a reason to use a different symmetry number we print 
out the resulting rotational entropy values for sn=1,12 :
 --------------------------------------------------------
|  sn= 1 | S(rot)=       0.01608486 Eh     10.09 kcal/mol|
|  sn= 2 | S(rot)=       0.01543041 Eh      9.68 kcal/mol|
|  sn= 3 | S(rot)=       0.01504757 Eh      9.44 kcal/mol|
|  sn= 4 | S(rot)=       0.01477595 Eh      9.27 kcal/mol|
|  sn= 5 | S(rot)=       0.01456526 Eh      9.14 kcal/mol|
|  sn= 6 | S(rot)=       0.01439312 Eh      9.03 kcal/mol|
|  sn= 7 | S(rot)=       0.01424757 Eh      8.94 kcal/mol|
|  sn= 8 | S(rot)=       0.01412149 Eh      8.86 kcal/mol|
|  sn= 9 | S(rot)=       0.01401028 Eh      8.79 kcal/mol|
|  sn=10 | S(rot)=       0.01391081 Eh      8.73 kcal/mol|
|  sn=11 | S(rot)=       0.01382082 Eh      8.67 kcal/mol|
|  sn=12 | S(rot)=       0.01373866 Eh      8.62 kcal/mol|
 --------------------------------------------------------


-------------------
GIBBS FREE ENERGY
-------------------

The Gibbs free energy is G = H - T*S

Total enthalpy                    ...   -888.00698646 Eh 
Total entropy correction          ...     -0.06516952 Eh    -40.89 kcal/mol
-----------------------------------------------------------------------
Final Gibbs free energy         ...   -888.07215598 Eh

For completeness - the Gibbs free energy minus the electronic energy
G-E(el)                           ...      0.39742715 Eh    249.39 kcal/mol


Timings for individual modules:

Sum of individual times         ...    28780.098 sec (= 479.668 min)
GTO integral calculation        ...       44.134 sec (=   0.736 min)   0.2 %
SCF iterations                  ...    11937.563 sec (= 198.959 min)  41.5 %
SCF Gradient evaluation         ...     3671.937 sec (=  61.199 min)  12.8 %
Geometry relaxation             ...        3.687 sec (=   0.061 min)   0.0 %
Analytical frequency calculation...    10916.091 sec (= 181.935 min)  37.9 %
CHELPG charge generation        ...     2206.685 sec (=  36.778 min)   7.7 %
                             ****ORCA TERMINATED NORMALLY****
TOTAL RUN TIME: 0 days 8 hours 0 minutes 0 seconds 978 msec
