
Lmod is automatically replacing "intel/2020.1.217" with "gcc/10.3.0".


The following have been reloaded with a version change:
  1) gcccore/.9.3.0 => gcccore/.10.3.0        3) openmpi/4.0.3 => openmpi/4.1.1
  2) libfabric/1.10.1 => libfabric/1.12.1     4) ucx/1.8.0 => ucx/1.9.0

To execute ORCA, run: 
   ${EBROOTORCA}/orca orca.inp > orca.out
cp: cannot stat '/project/6006388/cieritan/Fentanyl_analogs/Despropionyl_ortho-Methylfentanyl/exoN-Prot/DFT/*.hess': No such file or directory
cp: cannot stat '/project/6006388/cieritan/Fentanyl_analogs/Despropionyl_ortho-Methylfentanyl/exoN-Prot/DFT/*.gbw': No such file or directory

                                 *****************
                                 * O   R   C   A *
                                 *****************

                                            #,                                       
                                            ###                                      
                                            ####                                     
                                            #####                                    
                                            ######                                   
                                           ########,                                 
                                     ,,################,,,,,                         
                               ,,#################################,,                 
                          ,,##########################################,,             
                       ,#########################################, ''#####,          
                    ,#############################################,,   '####,        
                  ,##################################################,,,,####,       
                ,###########''''           ''''###############################       
              ,#####''   ,,,,##########,,,,          '''####'''          '####       
            ,##' ,,,,###########################,,,                        '##       
           ' ,,###''''                  '''############,,,                           
         ,,##''                                '''############,,,,        ,,,,,,###''
      ,#''                                            '''#######################'''  
     '                                                          ''''####''''         
             ,#######,   #######,   ,#######,      ##                                
            ,#'     '#,  ##    ##  ,#'     '#,    #''#        ######   ,####,        
            ##       ##  ##   ,#'  ##            #'  '#       #        #'  '#        
            ##       ##  #######   ##           ,######,      #####,   #    #        
            '#,     ,#'  ##    ##  '#,     ,#' ,#      #,         ##   #,  ,#        
             '#######'   ##     ##  '#######'  #'      '#     #####' # '####'        



                  #######################################################
                  #                        -***-                        #
                  #          Department of theory and spectroscopy      #
                  #    Directorship and core code : Frank Neese         #
                  #        Max Planck Institute fuer Kohlenforschung    #
                  #                Kaiser Wilhelm Platz 1               #
                  #                 D-45470 Muelheim/Ruhr               #
                  #                      Germany                        #
                  #                                                     #
                  #                  All rights reserved                #
                  #                        -***-                        #
                  #######################################################


                         Program Version 5.0.4 -  RELEASE  -


 With contributions from (in alphabetic order):
   Daniel Aravena         : Magnetic Suceptibility
   Michael Atanasov       : Ab Initio Ligand Field Theory (pilot matlab implementation)
   Alexander A. Auer      : GIAO ZORA, VPT2 properties, NMR spectrum
   Ute Becker             : Parallelization
   Giovanni Bistoni       : ED, misc. LED, open-shell LED, HFLD
   Martin Brehm           : Molecular dynamics
   Dmytro Bykov           : SCF Hessian
   Vijay G. Chilkuri      : MRCI spin determinant printing, contributions to CSF-ICE
   Dipayan Datta          : RHF DLPNO-CCSD density
   Achintya Kumar Dutta   : EOM-CC, STEOM-CC
   Dmitry Ganyushin       : Spin-Orbit,Spin-Spin,Magnetic field MRCI
   Miquel Garcia          : C-PCM and meta-GGA Hessian, CC/C-PCM, Gaussian charge scheme
   Yang Guo               : DLPNO-NEVPT2, F12-NEVPT2, CIM, IAO-localization
   Andreas Hansen         : Spin unrestricted coupled pair/coupled cluster methods
   Benjamin Helmich-Paris : MC-RPA, TRAH-SCF, COSX integrals
   Lee Huntington         : MR-EOM, pCC
   Robert Izsak           : Overlap fitted RIJCOSX, COSX-SCS-MP3, EOM
   Marcus Kettner         : VPT2
   Christian Kollmar      : KDIIS, OOCD, Brueckner-CCSD(T), CCSD density, CASPT2, CASPT2-K
   Simone Kossmann        : Meta GGA functionals, TD-DFT gradient, OOMP2, MP2 Hessian
   Martin Krupicka        : Initial AUTO-CI
   Lucas Lang             : DCDCAS
   Marvin Lechner         : AUTO-CI (C++ implementation), FIC-MRCC
   Dagmar Lenk            : GEPOL surface, SMD
   Dimitrios Liakos       : Extrapolation schemes; Compound Job, initial MDCI parallelization
   Dimitrios Manganas     : Further ROCIS development; embedding schemes
   Dimitrios Pantazis     : SARC Basis sets
   Anastasios Papadopoulos: AUTO-CI, single reference methods and gradients
   Taras Petrenko         : DFT Hessian,TD-DFT gradient, ASA, ECA, R-Raman, ABS, FL, XAS/XES, NRVS
   Peter Pinski           : DLPNO-MP2, DLPNO-MP2 Gradient
   Christoph Reimann      : Effective Core Potentials
   Marius Retegan         : Local ZFS, SOC
   Christoph Riplinger    : Optimizer, TS searches, QM/MM, DLPNO-CCSD(T), (RO)-DLPNO pert. Triples
   Tobias Risthaus        : Range-separated hybrids, TD-DFT gradient, RPA, STAB
   Michael Roemelt        : Original ROCIS implementation
   Masaaki Saitow         : Open-shell DLPNO-CCSD energy and density
   Barbara Sandhoefer     : DKH picture change effects
   Avijit Sen             : IP-ROCIS
   Kantharuban Sivalingam : CASSCF convergence, NEVPT2, FIC-MRCI
   Bernardo de Souza      : ESD, SOC TD-DFT
   Georgi Stoychev        : AutoAux, RI-MP2 NMR, DLPNO-MP2 response
   Willem Van den Heuvel  : Paramagnetic NMR
   Boris Wezisla          : Elementary symmetry handling
   Frank Wennmohs         : Technical directorship


 We gratefully acknowledge several colleagues who have allowed us to
 interface, adapt or use parts of their codes:
   Stefan Grimme, W. Hujo, H. Kruse, P. Pracht,  : VdW corrections, initial TS optimization,
                  C. Bannwarth, S. Ehlert          DFT functionals, gCP, sTDA/sTD-DF
   Ed Valeev, F. Pavosevic, A. Kumar             : LibInt (2-el integral package), F12 methods
   Garnet Chan, S. Sharma, J. Yang, R. Olivares  : DMRG
   Ulf Ekstrom                                   : XCFun DFT Library
   Mihaly Kallay                                 : mrcc  (arbitrary order and MRCC methods)
   Jiri Pittner, Ondrej Demel                    : Mk-CCSD
   Frank Weinhold                                : gennbo (NPA and NBO analysis)
   Christopher J. Cramer and Donald G. Truhlar   : smd solvation model
   Lars Goerigk                                  : TD-DFT with DH, B97 family of functionals
   V. Asgeirsson, H. Jonsson                     : NEB implementation
   FAccTs GmbH                                   : IRC, NEB, NEB-TS, DLPNO-Multilevel, CI-OPT
                                                   MM, QMMM, 2- and 3-layer-ONIOM, Crystal-QMMM,
                                                   LR-CPCM, SF, NACMEs, symmetry and pop. for TD-DFT,
                                                   nearIR, NL-DFT gradient (VV10), updates on ESD,
                                                   ML-optimized integration grids
   S Lehtola, MJT Oliveira, MAL Marques          : LibXC Library
   Liviu Ungur et al                             : ANISO software


 Your calculation uses the libint2 library for the computation of 2-el integrals
 For citations please refer to: http://libint.valeyev.net

 Your ORCA version has been built with support for libXC version: 5.1.0
 For citations please refer to: https://tddft.org/programs/libxc/

 This ORCA versions uses:
   CBLAS   interface :  Fast vector & matrix operations
   LAPACKE interface :  Fast linear algebra routines
   SCALAPACK package :  Parallel linear algebra routines
   Shared memory     :  Shared parallel matrices
   BLAS/LAPACK       :  OpenBLAS 0.3.15  USE64BITINT DYNAMIC_ARCH NO_AFFINITY SkylakeX SINGLE_THREADED
        Core in use  :  SkylakeX
   Copyright (c) 2011-2014, The OpenBLAS Project


Your calculation utilizes the atom-pairwise dispersion correction
with the Becke-Johnson damping scheme (D3BJ)
Cite in your paper:
S.Grimme, S.Ehrlich, L.Goerigk, J Comput Chem, (2011), 32, 1456–1465 
S.Grimme, J.Antony, S.Ehrlich and H.Krieg, J.Chem.Phys., 132, (2010), 154104 
   

================================================================================

----- Orbital basis set information -----
Your calculation utilizes the basis: def2-TZVP
   F. Weigend and R. Ahlrichs, Phys. Chem. Chem. Phys. 7, 3297 (2005).

----- AuxJ basis set information -----
Your calculation utilizes the auxiliary basis: def2/J
   F. Weigend, Phys. Chem. Chem. Phys. 8, 1057 (2006).

================================================================================
                                        WARNINGS
                       Please study these warnings very carefully!
================================================================================


WARNING: Geometry Optimization
  ===> : Switching off AutoStart
         For restart on a previous wavefunction, please use MOREAD

INFO   : the flag for use of the SHARK integral package has been found!

================================================================================
                                       INPUT FILE
================================================================================
NAME = desprop_oMe-Fentanyl_exoNProt_2.inp
|  1> ! wB97X-D3BJ TightOpt Freq def2-TZVP def2/J RIJCOSX TightSCF defgrid3 CHELPG
|  2> %maxcore 3400
|  3> 
|  4> %pal nprocs 8 
|  5> end
|  6> 
|  7> %chelpg
|  8> grid 0.1
|  9> rmax 3.0
| 10> end
| 11> 
| 12> *xyz 1 1
| 13> N          -2.16558500       0.29267600       0.72108900
| 14> N           0.04504000       0.73082300      -0.74417700
| 15> C          -0.84705800       1.95928700      -0.77120600
| 16> C          -2.18850500       1.55263300      -1.37736700
| 17> C          -1.03969100       2.47469400       0.65140500
| 18> C          -3.03732000       0.78308100      -0.34509800
| 19> C          -1.72363300       1.41353200       1.54609500
| 20> C          -2.68573400      -0.84176900       1.47428400
| 21> C          -2.78001800      -2.10579200       0.60335400
| 22> C           1.40579400       0.94888700      -0.25282100
| 23> C          -1.56651900      -2.26240100      -0.28247900
| 24> C           1.63671300       0.91716739       1.10919694
| 25> C           2.42222336       1.17076327      -1.16686459
| 26> C          -0.30566500      -2.49296000       0.27113100
| 27> C          -1.66479300      -2.11779500      -1.66434000
| 28> C           2.93741498       1.11177730       1.55959017
| 29> C           3.72588238       1.36233023      -0.72054173
| 30> C           3.96526535       1.32807902       0.65463514
| 31> C           0.82699600      -2.55136100      -0.53000800
| 32> C          -0.53379300      -2.18039000      -2.47448300
| 33> C           0.71889400      -2.38646500      -1.90790700
| 34> H          -0.33684100       2.69914300      -1.38823900
| 35> H          -2.02296700       0.94628600      -2.27280800
| 36> H          -2.70409800       2.45740600      -1.70335000
| 37> H          -1.65854100       3.37077800       0.57385100
| 38> H          -0.08709300       2.78836200       1.08021700
| 39> H          -3.82542100       1.42769100       0.07064600
| 40> H          -3.53380500      -0.05708800      -0.82555800
| 41> H          -1.01998500       1.03342900       2.28999100
| 42> H          -2.56249300       1.86343600       2.09639700
| 43> H          -1.98720900      -1.02220600       2.29613200
| 44> H          -3.66378600      -0.62321300       1.92705000
| 45> H          -3.68110300      -2.08220200      -0.01290000
| 46> H          -2.88530500      -2.96844400       1.26622200
| 47> H           0.82617871       0.75197254       1.81140047
| 48> H          -0.21058400      -2.63448700       1.34393700
| 49> H          -2.63957600      -1.96808700      -2.11829400
| 50> H           3.14507962       1.09689889       2.62296956
| 51> H           4.97543464       1.48012774       1.02000146
| 52> H           1.79711900      -2.73355400      -0.08135300
| 53> H          -0.63554400      -2.08713400      -3.55064700
| 54> H           1.60100800      -2.44628800      -2.53538800
| 55> H          -0.50135800       0.07139000      -0.14368300
| 56> H           0.07491200       0.29643900      -1.66874400
| 57> H           4.52403738       1.53145097      -1.41281825
| 58> C           2.10481377       1.22996110      -2.67263575
| 59> H           2.46431648       0.34138469      -3.14812472
| 60> H           1.04653874       1.30552336      -2.81135962
| 61> H           2.58304836       2.08410625      -3.10464009
| 62> *
| 63> 
| 64> 
| 65>                          ****END OF INPUT****
================================================================================

                       *****************************
                       * Geometry Optimization Run *
                       *****************************

Geometry optimization settings:
Update method            Update   .... BFGS
Choice of coordinates    CoordSys .... Z-matrix Internals
Initial Hessian          InHess   .... Almoef's Model

Convergence Tolerances:
Energy Change            TolE     ....  1.0000e-06 Eh
Max. Gradient            TolMAXG  ....  1.0000e-04 Eh/bohr
RMS Gradient             TolRMSG  ....  3.0000e-05 Eh/bohr
Max. Displacement        TolMAXD  ....  1.0000e-03 bohr
RMS Displacement         TolRMSD  ....  6.0000e-04 bohr
Strict Convergence                ....  False
------------------------------------------------------------------------------
                        ORCA OPTIMIZATION COORDINATE SETUP
------------------------------------------------------------------------------

The optimization will be done in new redundant internal coordinates
Making redundant internal coordinates   ...  (new redundants) done
Evaluating the initial hessian          ...  (Almloef) done
Evaluating the coordinates              ...  done
Calculating the B-matrix                .... done
Calculating the G-matrix                .... done
Diagonalizing the G-matrix              .... done
Small eigenvalue found = 2.045e-03
Small eigenvalue found = 4.421e-03
Small eigenvalue found = 7.986e-03
Small eigenvalue found = 1.141e-02
Small eigenvalue found = 2.002e-02
Small eigenvalue found = 2.466e-02
The first mode is                       ....  142
The number of degrees of freedom        ....  141

    -----------------------------------------------------------------
                    Redundant Internal Coordinates


    -----------------------------------------------------------------
         Definition                    Initial Value    Approx d2E/dq
    -----------------------------------------------------------------
      1. B(C   2,N   1)                  1.5185         0.349092   
      2. B(C   3,C   2)                  1.5272         0.377465   
      3. B(C   4,C   2)                  1.5253         0.380065   
      4. B(C   5,C   3)                  1.5422         0.357246   
      5. B(C   5,N   0)                  1.4619         0.429686   
      6. B(C   6,C   4)                  1.5474         0.350499   
      7. B(C   6,N   0)                  1.4602         0.432341   
      8. B(C   7,N   0)                  1.4577         0.436416   
      9. B(C   8,C   7)                  1.5379         0.362877   
     10. B(C   9,N   1)                  1.4631         0.427823   
     11. B(C  10,C   8)                  1.5106         0.401222   
     12. B(C  11,C   9)                  1.3818         0.643860   
     13. B(C  12,C   9)                  1.3849         0.636709   
     14. B(C  13,C  10)                  1.3962         0.610711   
     15. B(C  14,C  10)                  1.3929         0.618226   
     16. B(C  15,C  11)                  1.3902         0.624423   
     17. B(C  16,C  12)                  1.3912         0.622055   
     18. B(C  17,C  16)                  1.3963         0.610554   
     19. B(C  17,C  15)                  1.3864         0.633029   
     20. B(C  18,C  13)                  1.3886         0.628063   
     21. B(C  19,C  14)                  1.3926         0.618795   
     22. B(C  20,C  19)                  1.3902         0.624301   
     23. B(C  20,C  18)                  1.3919         0.620371   
     24. B(H  21,C   2)                  1.0902         0.359895   
     25. B(H  22,C   3)                  1.0940         0.354824   
     26. B(H  23,C   3)                  1.0912         0.358517   
     27. B(H  24,C   4)                  1.0918         0.357769   
     28. B(H  25,C   4)                  1.0907         0.359124   
     29. B(H  26,C   5)                  1.0998         0.347420   
     30. B(H  27,C   5)                  1.0878         0.363075   
     31. B(H  28,C   6)                  1.0922         0.357154   
     32. B(H  29,C   6)                  1.0995         0.347731   
     33. B(H  30,C   7)                  1.0936         0.355388   
     34. B(H  31,C   7)                  1.0997         0.347489   
     35. B(H  32,C   8)                  1.0919         0.357575   
     36. B(H  33,C   8)                  1.0930         0.356154   
     37. B(H  34,C  11)                  1.0851         0.366701   
     38. B(H  35,C  13)                  1.0863         0.365068   
     39. B(H  36,C  14)                  1.0857         0.365868   
     40. B(H  37,C  15)                  1.0836         0.368709   
     41. B(H  38,C  17)                  1.0849         0.366882   
     42. B(H  39,C  18)                  1.0843         0.367771   
     43. B(H  40,C  19)                  1.0850         0.366804   
     44. B(H  41,C  20)                  1.0842         0.367888   
     45. B(H  42,N   1)                  1.0459         0.379185   
     46. B(H  43,C  20)                  2.7695         0.000753   
     47. B(H  43,N   1)                  1.0220         0.414105   
     48. B(H  44,C  16)                  1.0700         0.387554   
     49. B(C  45,C  12)                  1.5400         0.360100   
     50. B(H  46,C  45)                  1.0700         0.387554   
     51. B(H  47,C  45)                  1.0700         0.387554   
     52. B(H  48,C  45)                  1.0700         0.387554   
     53. A(C   5,N   0,C   6)          109.5745         0.376903   
     54. A(C   6,N   0,C   7)          114.4215         0.377918   
     55. A(C   5,N   0,C   7)          115.1590         0.377515   
     56. A(H  42,N   1,H  43)          105.4676         0.294891   
     57. A(C   2,N   1,H  42)          102.3200         0.318822   
     58. A(C   9,N   1,H  43)          109.8765         0.334494   
     59. A(C   2,N   1,C   9)          115.5825         0.363029   
     60. A(C   9,N   1,H  42)          112.7690         0.329648   
     61. A(C   2,N   1,H  43)          110.1784         0.323450   
     62. A(N   1,C   2,C   3)          107.9203         0.357580   
     63. A(C   3,C   2,C   4)          110.4405         0.365070   
     64. A(C   3,C   2,H  21)          111.5406         0.324841   
     65. A(C   4,C   2,H  21)          110.9576         0.325208   
     66. A(N   1,C   2,C   4)          109.3274         0.357998   
     67. A(N   1,C   2,H  21)          106.5093         0.318800   
     68. A(C   5,C   3,H  23)          110.7108         0.321718   
     69. A(H  22,C   3,H  23)          106.6504         0.289966   
     70. A(C   2,C   3,C   5)          110.5276         0.361228   
     71. A(C   2,C   3,H  22)          109.8490         0.324085   
     72. A(C   2,C   3,H  23)          108.2296         0.324636   
     73. A(C   5,C   3,H  22)          110.7677         0.321173   
     74. A(C   2,C   4,H  24)          106.4198         0.324891   
     75. A(H  24,C   4,H  25)          106.6749         0.290419   
     76. A(C   6,C   4,H  25)          110.8503         0.320805   
     77. A(C   2,C   4,H  25)          110.7043         0.325093   
     78. A(C   6,C   4,H  24)          110.6955         0.320607   
     79. A(C   2,C   4,C   6)          111.3070         0.360477   
     80. A(H  26,C   5,H  27)          107.0147         0.289581   
     81. A(N   0,C   5,C   3)          109.1088         0.367023   
     82. A(N   0,C   5,H  27)          109.5848         0.330342   
     83. A(C   3,C   5,H  27)          109.9372         0.322385   
     84. A(C   3,C   5,H  26)          110.7923         0.320068   
     85. A(N   0,C   5,H  26)          110.3794         0.327946   
     86. A(C   4,C   6,H  29)          110.2427         0.319119   
     87. A(H  28,C   6,H  29)          107.0393         0.288877   
     88. A(N   0,C   6,H  29)          111.4659         0.328328   
     89. A(C   4,C   6,H  28)          110.3471         0.320516   
     90. A(N   0,C   6,H  28)          108.2192         0.329781   
     91. A(N   0,C   6,C   4)          109.4817         0.366212   
     92. A(C   8,C   7,H  31)          109.9976         0.320898   
     93. A(C   8,C   7,H  30)          109.2165         0.322081   
     94. A(N   0,C   7,H  30)          106.7860         0.330022   
     95. A(N   0,C   7,C   8)          111.6488         0.368992   
     96. A(N   0,C   7,H  31)          112.0507         0.328799   
     97. A(H  30,C   7,H  31)          106.9458         0.288621   
     98. A(H  32,C   8,H  33)          106.2503         0.290016   
     99. A(C   7,C   8,H  33)          108.1287         0.322194   
    100. A(C  10,C   8,H  32)          109.5250         0.327772   
    101. A(C   7,C   8,H  32)          110.6371         0.322404   
    102. A(C   7,C   8,C  10)          111.5960         0.365994   
    103. A(C  10,C   8,H  33)          110.5611         0.327557   
    104. A(N   1,C   9,C  12)          119.0021         0.405562   
    105. A(N   1,C   9,C  11)          118.8831         0.406363   
    106. A(C  11,C   9,C  12)          122.1131         0.439129   
    107. A(C  13,C  10,C  14)          118.3094         0.432666   
    108. A(C   8,C  10,C  14)          120.9536         0.401494   
    109. A(C   8,C  10,C  13)          120.6678         0.400630   
    110. A(C   9,C  11,H  34)          121.1010         0.356271   
    111. A(C   9,C  11,C  15)          118.1959         0.437588   
    112. A(C  15,C  11,H  34)          120.7018         0.354423   
    113. A(C   9,C  12,C  45)          120.0158         0.395978   
    114. A(C   9,C  12,C  16)          119.8736         0.436409   
    115. A(C  16,C  12,C  45)          120.1017         0.394365   
    116. A(C  10,C  13,C  18)          120.9841         0.433896   
    117. A(C  18,C  13,H  35)          119.5327         0.354504   
    118. A(C  10,C  13,H  35)          119.4823         0.352826   
    119. A(C  10,C  14,C  19)          121.0088         0.433690   
    120. A(C  19,C  14,H  36)          119.4812         0.353743   
    121. A(C  10,C  14,H  36)          119.5042         0.353688   
    122. A(C  11,C  15,C  17)          120.2664         0.436252   
    123. A(C  17,C  15,H  37)          120.0410         0.355576   
    124. A(C  11,C  15,H  37)          119.6924         0.354751   
    125. A(C  12,C  16,C  17)          118.2454         0.433127   
    126. A(C  17,C  16,H  44)          120.8773         0.356404   
    127. A(C  12,C  16,H  44)          120.8773         0.357535   
    128. A(C  15,C  17,C  16)          121.3042         0.434492   
    129. A(C  16,C  17,H  38)          119.2008         0.353107   
    130. A(C  15,C  17,H  38)          119.4939         0.355276   
    131. A(C  13,C  18,C  20)          120.1853         0.435124   
    132. A(C  20,C  18,H  39)          119.9345         0.354207   
    133. A(C  13,C  18,H  39)          119.8785         0.354948   
    134. A(C  14,C  19,C  20)          120.0907         0.434454   
    135. A(C  20,C  19,H  40)          120.0979         0.354428   
    136. A(C  14,C  19,H  40)          119.8007         0.353896   
    137. A(C  18,C  20,C  19)          119.4048         0.434653   
    138. A(C  19,C  20,H  41)          120.3609         0.354605   
    139. A(C  18,C  20,H  41)          120.2121         0.354226   
    140. A(H  47,C  45,H  48)          109.4712         0.297665   
    141. A(H  46,C  45,H  48)          109.4712         0.297665   
    142. A(C  12,C  45,H  48)          109.4712         0.326284   
    143. A(H  46,C  45,H  47)          109.4713         0.297665   
    144. A(C  12,C  45,H  47)          109.4712         0.326284   
    145. A(C  12,C  45,H  46)          109.4712         0.326284   
    146. D(H  21,C   2,N   1,H  43)    -68.1249         0.011237   
    147. D(H  21,C   2,N   1,H  42)   -179.9079         0.011237   
    148. D(C   4,C   2,N   1,H  43)    171.9219         0.011237   
    149. D(C   3,C   2,N   1,H  43)     51.7641         0.011237   
    150. D(C   3,C   2,N   1,H  42)    -60.0189         0.011237   
    151. D(C   4,C   2,N   1,C   9)    -62.8007         0.011237   
    152. D(C   4,C   2,N   1,H  42)     60.1390         0.011237   
    153. D(H  21,C   2,N   1,C   9)     57.1524         0.011237   
    154. D(C   3,C   2,N   1,C   9)    177.0415         0.011237   
    155. D(H  22,C   3,C   2,N   1)    -45.5080         0.011364   
    156. D(H  22,C   3,C   2,C   4)   -164.9631         0.011364   
    157. D(H  23,C   3,C   2,N   1)   -161.5876         0.011364   
    158. D(H  23,C   3,C   2,H  21)    -44.9251         0.011364   
    159. D(C   5,C   3,C   2,N   1)     77.0193         0.011364   
    160. D(H  23,C   3,C   2,C   4)     78.9573         0.011364   
    161. D(C   5,C   3,C   2,C   4)    -42.4358         0.011364   
    162. D(C   5,C   3,C   2,H  21)   -166.3182         0.011364   
    163. D(H  22,C   3,C   2,H  21)     71.1545         0.011364   
    164. D(H  24,C   4,C   2,H  21)     61.0894         0.011512   
    165. D(H  25,C   4,C   2,C   3)   -178.6705         0.011512   
    166. D(H  25,C   4,C   2,N   1)     62.7289         0.011512   
    167. D(H  24,C   4,C   2,C   3)    -63.1285         0.011512   
    168. D(H  24,C   4,C   2,N   1)    178.2710         0.011512   
    169. D(H  25,C   4,C   2,H  21)    -54.4526         0.011512   
    170. D(C   6,C   4,C   2,N   1)    -61.0389         0.011512   
    171. D(C   6,C   4,C   2,C   3)     57.5616         0.011512   
    172. D(C   6,C   4,C   2,H  21)   -178.2205         0.011512   
    173. D(H  26,C   5,N   0,C   7)     80.3023         0.015741   
    174. D(H  26,C   5,N   0,C   6)    -50.3762         0.015741   
    175. D(C   3,C   5,N   0,C   6)     71.5935         0.015741   
    176. D(C   3,C   5,N   0,C   7)   -157.7281         0.015741   
    177. D(H  27,C   5,C   3,H  23)    101.2947         0.010250   
    178. D(H  27,C   5,C   3,H  22)    -16.8039         0.010250   
    179. D(H  27,C   5,C   3,C   2)   -138.7925         0.010250   
    180. D(H  26,C   5,C   3,H  22)   -134.8828         0.010250   
    181. D(H  26,C   5,C   3,H  23)    -16.7842         0.010250   
    182. D(H  26,C   5,C   3,C   2)    103.1285         0.010250   
    183. D(N   0,C   5,C   3,H  23)   -138.5043         0.010250   
    184. D(N   0,C   5,C   3,H  22)    103.3972         0.010250   
    185. D(N   0,C   5,C   3,C   2)    -18.5915         0.010250   
    186. D(H  27,C   5,N   0,C   7)    -37.3105         0.015741   
    187. D(H  27,C   5,N   0,C   6)   -167.9890         0.015741   
    188. D(H  29,C   6,C   4,H  25)    105.1215         0.009896   
    189. D(H  29,C   6,C   4,H  24)    -13.0500         0.009896   
    190. D(H  28,C   6,C   4,H  25)    -12.9037         0.009896   
    191. D(H  28,C   6,C   4,H  24)   -131.0752         0.009896   
    192. D(H  28,C   6,C   4,C   2)    110.7811         0.009896   
    193. D(N   0,C   6,C   4,H  25)   -131.9097         0.009896   
    194. D(N   0,C   6,C   4,H  24)    109.9187         0.009896   
    195. D(N   0,C   6,C   4,C   2)     -8.2249         0.009896   
    196. D(H  29,C   6,N   0,C   7)    -64.5824         0.015936   
    197. D(H  29,C   6,N   0,C   5)     66.4896         0.015936   
    198. D(H  28,C   6,N   0,C   7)     52.8639         0.015936   
    199. D(H  29,C   6,C   4,C   2)   -131.1936         0.009896   
    200. D(H  28,C   6,N   0,C   5)   -176.0641         0.015936   
    201. D(C   4,C   6,N   0,C   7)    173.1774         0.015936   
    202. D(C   4,C   6,N   0,C   5)    -55.7506         0.015936   
    203. D(H  31,C   7,N   0,C   5)    -57.0464         0.016239   
    204. D(H  30,C   7,N   0,C   6)    -45.5307         0.016239   
    205. D(H  30,C   7,N   0,C   5)   -173.8319         0.016239   
    206. D(C   8,C   7,N   0,C   6)   -164.8454         0.016239   
    207. D(H  31,C   7,N   0,C   6)     71.2548         0.016239   
    208. D(C   8,C   7,N   0,C   5)     66.8535         0.016239   
    209. D(H  33,C   8,C   7,H  31)    -71.3955         0.010553   
    210. D(H  33,C   8,C   7,N   0)    163.5553         0.010553   
    211. D(H  32,C   8,C   7,H  31)     44.5775         0.010553   
    212. D(H  32,C   8,C   7,H  30)    161.6629         0.010553   
    213. D(H  32,C   8,C   7,N   0)    -80.4717         0.010553   
    214. D(C  10,C   8,C   7,H  31)    166.7980         0.010553   
    215. D(H  33,C   8,C   7,H  30)     45.6899         0.010553   
    216. D(C  10,C   8,C   7,H  30)    -76.1166         0.010553   
    217. D(C  10,C   8,C   7,N   0)     41.7488         0.010553   
    218. D(C  12,C   9,N   1,H  43)     29.5771         0.015605   
    219. D(C  12,C   9,N   1,H  42)    146.9189         0.015605   
    220. D(C  12,C   9,N   1,C   2)    -95.8554         0.015605   
    221. D(C  11,C   9,N   1,H  43)   -149.9643         0.015605   
    222. D(C  11,C   9,N   1,H  42)    -32.6225         0.015605   
    223. D(C  11,C   9,N   1,C   2)     84.6033         0.015605   
    224. D(C  14,C  10,C   8,H  33)    128.1653         0.011944   
    225. D(C  14,C  10,C   8,H  32)     11.4138         0.011944   
    226. D(C  14,C  10,C   8,C   7)   -111.4439         0.011944   
    227. D(C  13,C  10,C   8,H  33)    -54.9115         0.011944   
    228. D(C  13,C  10,C   8,H  32)   -171.6630         0.011944   
    229. D(C  13,C  10,C   8,C   7)     65.4793         0.011944   
    230. D(H  34,C  11,C   9,C  12)    179.3723         0.028826   
    231. D(H  34,C  11,C   9,N   1)     -1.1013         0.028826   
    232. D(C  15,C  11,C   9,C  12)     -0.2097         0.028826   
    233. D(C  15,C  11,C   9,N   1)    179.3167         0.028826   
    234. D(C  45,C  12,C   9,C  11)   -178.5294         0.028147   
    235. D(C  45,C  12,C   9,N   1)      1.9448         0.028147   
    236. D(C  16,C  12,C   9,C  11)      0.3889         0.028147   
    237. D(C  16,C  12,C   9,N   1)   -179.1369         0.028147   
    238. D(H  35,C  13,C  10,C  14)   -178.4104         0.025762   
    239. D(H  35,C  13,C  10,C   8)      4.5865         0.025762   
    240. D(C  18,C  13,C  10,C  14)      1.2285         0.025762   
    241. D(C  18,C  13,C  10,C   8)   -175.7746         0.025762   
    242. D(H  36,C  14,C  10,C  13)    178.1468         0.026438   
    243. D(H  36,C  14,C  10,C   8)     -4.8591         0.026438   
    244. D(C  19,C  14,C  10,C  13)     -0.9753         0.026438   
    245. D(C  19,C  14,C  10,C   8)    176.0188         0.026438   
    246. D(H  37,C  15,C  11,H  34)      0.0985         0.027004   
    247. D(H  37,C  15,C  11,C   9)    179.6822         0.027004   
    248. D(C  17,C  15,C  11,H  34)   -179.7091         0.027004   
    249. D(C  17,C  15,C  11,C   9)     -0.1253         0.027004   
    250. D(H  44,C  16,C  12,C  45)     -1.3066         0.026787   
    251. D(H  44,C  16,C  12,C   9)    179.7761         0.026787   
    252. D(C  17,C  16,C  12,C  45)    178.6934         0.026787   
    253. D(C  17,C  16,C  12,C   9)     -0.2239         0.026787   
    254. D(H  38,C  17,C  16,H  44)      0.2776         0.025748   
    255. D(H  38,C  17,C  16,C  12)   -179.7224         0.025748   
    256. D(C  15,C  17,C  16,H  44)    179.8946         0.025748   
    257. D(C  15,C  17,C  16,C  12)     -0.1054         0.025748   
    258. D(H  38,C  17,C  15,H  37)      0.0927         0.027802   
    259. D(H  38,C  17,C  15,C  11)    179.8996         0.027802   
    260. D(C  16,C  17,C  15,H  37)   -179.5232         0.027802   
    261. D(C  16,C  17,C  15,C  11)      0.2836         0.027802   
    262. D(H  39,C  18,C  13,H  35)     -0.2294         0.027340   
    263. D(H  39,C  18,C  13,C  10)   -179.8681         0.027340   
    264. D(C  20,C  18,C  13,H  35)    179.2986         0.027340   
    265. D(C  20,C  18,C  13,C  10)     -0.3401         0.027340   
    266. D(H  40,C  19,C  14,H  36)     -0.4743         0.026490   
    267. D(H  40,C  19,C  14,C  10)    178.6479         0.026490   
    268. D(C  20,C  19,C  14,H  36)   -179.2887         0.026490   
    269. D(C  20,C  19,C  14,C  10)     -0.1664         0.026490   
    270. D(H  41,C  20,C  18,C  13)   -179.1118         0.028941   
    271. D(C  19,C  20,C  18,H  39)    178.7047         0.028941   
    272. D(C  19,C  20,C  18,C  13)     -0.8231         0.028941   
    273. D(H  41,C  20,C  19,H  40)      0.5480         0.029334   
    274. D(H  41,C  20,C  19,C  14)    179.3587         0.029334   
    275. D(C  18,C  20,C  19,H  40)   -177.7382         0.029334   
    276. D(C  18,C  20,C  19,C  14)      1.0726         0.029334   
    277. D(H  41,C  20,C  18,H  39)      0.4160         0.028941   
    278. D(H  48,C  45,C  12,C  16)    -46.0203         0.009750   
    279. D(H  48,C  45,C  12,C   9)    132.8955         0.009750   
    280. D(H  47,C  45,C  12,C  16)   -166.0203         0.009750   
    281. D(H  47,C  45,C  12,C   9)     12.8955         0.009750   
    282. D(H  46,C  45,C  12,C  16)     73.9797         0.009750   
    283. D(H  46,C  45,C  12,C   9)   -107.1045         0.009750   
    -----------------------------------------------------------------

Number of atoms                         .... 49
Number of degrees of freedom            .... 283

         *************************************************************
         *                GEOMETRY OPTIMIZATION CYCLE   1            *
         *************************************************************
---------------------------------
CARTESIAN COORDINATES (ANGSTROEM)
---------------------------------
  N     -2.165585    0.292676    0.721089
  N      0.045040    0.730823   -0.744177
  C     -0.847058    1.959287   -0.771206
  C     -2.188505    1.552633   -1.377367
  C     -1.039691    2.474694    0.651405
  C     -3.037320    0.783081   -0.345098
  C     -1.723633    1.413532    1.546095
  C     -2.685734   -0.841769    1.474284
  C     -2.780018   -2.105792    0.603354
  C      1.405794    0.948887   -0.252821
  C     -1.566519   -2.262401   -0.282479
  C      1.636713    0.917167    1.109197
  C      2.422223    1.170763   -1.166865
  C     -0.305665   -2.492960    0.271131
  C     -1.664793   -2.117795   -1.664340
  C      2.937415    1.111777    1.559590
  C      3.725882    1.362330   -0.720542
  C      3.965265    1.328079    0.654635
  C      0.826996   -2.551361   -0.530008
  C     -0.533793   -2.180390   -2.474483
  C      0.718894   -2.386465   -1.907907
  H     -0.336841    2.699143   -1.388239
  H     -2.022967    0.946286   -2.272808
  H     -2.704098    2.457406   -1.703350
  H     -1.658541    3.370778    0.573851
  H     -0.087093    2.788362    1.080217
  H     -3.825421    1.427691    0.070646
  H     -3.533805   -0.057088   -0.825558
  H     -1.019985    1.033429    2.289991
  H     -2.562493    1.863436    2.096397
  H     -1.987209   -1.022206    2.296132
  H     -3.663786   -0.623213    1.927050
  H     -3.681103   -2.082202   -0.012900
  H     -2.885305   -2.968444    1.266222
  H      0.826179    0.751973    1.811400
  H     -0.210584   -2.634487    1.343937
  H     -2.639576   -1.968087   -2.118294
  H      3.145080    1.096899    2.622970
  H      4.975435    1.480128    1.020001
  H      1.797119   -2.733554   -0.081353
  H     -0.635544   -2.087134   -3.550647
  H      1.601008   -2.446288   -2.535388
  H     -0.501358    0.071390   -0.143683
  H      0.074912    0.296439   -1.668744
  H      4.524037    1.531451   -1.412818
  C      2.104814    1.229961   -2.672636
  H      2.464316    0.341385   -3.148125
  H      1.046539    1.305523   -2.811360
  H      2.583048    2.084106   -3.104640

----------------------------
CARTESIAN COORDINATES (A.U.)
----------------------------
  NO LB      ZA    FRAG     MASS         X           Y           Z
   0 N     7.0000    0    14.007   -4.092363    0.553077    1.362661
   1 N     7.0000    0    14.007    0.085113    1.381055   -1.406291
   2 C     6.0000    0    12.011   -1.600708    3.702516   -1.457368
   3 C     6.0000    0    12.011   -4.135675    2.934051   -2.602846
   4 C     6.0000    0    12.011   -1.964731    4.676494    1.230977
   5 C     6.0000    0    12.011   -5.739703    1.479809   -0.652141
   6 C     6.0000    0    12.011   -3.257194    2.671188    2.921696
   7 C     6.0000    0    12.011   -5.075302   -1.590713    2.785993
   8 C     6.0000    0    12.011   -5.253473   -3.979370    1.140174
   9 C     6.0000    0    12.011    2.656566    1.793137   -0.477762
  10 C     6.0000    0    12.011   -2.960292   -4.275318   -0.533808
  11 C     6.0000    0    12.011    3.092939    1.733195    2.096078
  12 C     6.0000    0    12.011    4.577339    2.212422   -2.205055
  13 C     6.0000    0    12.011   -0.577623   -4.711012    0.512363
  14 C     6.0000    0    12.011   -3.146003   -4.002053   -3.145147
  15 C     6.0000    0    12.011    5.550910    2.100955    2.947198
  16 C     6.0000    0    12.011    7.040897    2.574431   -1.361627
  17 C     6.0000    0    12.011    7.493266    2.509706    1.237081
  18 C     6.0000    0    12.011    1.562796   -4.821374   -1.001570
  19 C     6.0000    0    12.011   -1.008723   -4.120340   -4.676095
  20 C     6.0000    0    12.011    1.358513   -4.509765   -3.605422
  21 H     1.0000    0     1.008   -0.636537    5.100641   -2.623392
  22 H     1.0000    0     1.008   -3.822854    1.788221   -4.294985
  23 H     1.0000    0     1.008   -5.110005    4.643824   -3.218865
  24 H     1.0000    0     1.008   -3.134188    6.369847    1.084421
  25 H     1.0000    0     1.008   -0.164582    5.269241    2.041314
  26 H     1.0000    0     1.008   -7.228998    2.697945    0.133502
  27 H     1.0000    0     1.008   -6.677924   -0.107881   -1.560079
  28 H     1.0000    0     1.008   -1.927492    1.952898    4.327456
  29 H     1.0000    0     1.008   -4.842410    3.521384    3.961616
  30 H     1.0000    0     1.008   -3.755281   -1.931689    4.339061
  31 H     1.0000    0     1.008   -6.923552   -1.177702    3.641597
  32 H     1.0000    0     1.008   -6.956277   -3.934792   -0.024377
  33 H     1.0000    0     1.008   -5.452436   -5.609546    2.392813
  34 H     1.0000    0     1.008    1.561251    1.421022    3.423051
  35 H     1.0000    0     1.008   -0.397946   -4.978459    2.539673
  36 H     1.0000    0     1.008   -4.988076   -3.719145   -4.002996
  37 H     1.0000    0     1.008    5.943339    2.072838    4.956694
  38 H     1.0000    0     1.008    9.402209    2.797036    1.927523
  39 H     1.0000    0     1.008    3.396063   -5.165668   -0.153735
  40 H     1.0000    0     1.008   -1.201004   -3.944112   -6.709750
  41 H     1.0000    0     1.008    3.025467   -4.622814   -4.791189
  42 H     1.0000    0     1.008   -0.947429    0.134908   -0.271522
  43 H     1.0000    0     1.008    0.141563    0.560189   -3.153469
  44 H     1.0000    0     1.008    8.549192    2.894023   -2.669840
  45 C     6.0000    0    12.011    3.977522    2.324290   -5.050550
  46 H     1.0000    0     1.008    4.656883    0.645124   -5.949094
  47 H     1.0000    0     1.008    1.977672    2.467082   -5.312700
  48 H     1.0000    0     1.008    4.881254    3.938390   -5.866920

--------------------------------
INTERNAL COORDINATES (ANGSTROEM)
--------------------------------
 N      0   0   0     0.000000000000     0.00000000     0.00000000
 N      1   0   0     2.688092285430     0.00000000     0.00000000
 C      2   1   0     1.518450923718    70.02680175     0.00000000
 C      3   2   1     1.527179978734   107.92031433   299.79130149
 C      3   2   1     1.525311084880   109.32744538    59.94914331
 C      1   2   3     1.461907552898    92.18698423    48.55239287
 C      1   2   3     1.460231023871    86.21322579   299.07207302
 C      1   2   3     1.457677312800   134.58445251   177.97148201
 C      8   1   2     1.537908541522   111.64877253   305.37867823
 C      2   1   3     1.463090590274   127.30711029   107.49902614
 C      9   8   1     1.510564896246   111.59597609    41.74879711
 C     10   2   1     1.381818579663   118.88311290     0.99487685
 C     10   2   1     1.384858623643   119.00207824   180.53622551
 C     11   9   8     1.396207109958   120.66778828    65.47926149
 C     11   9   8     1.392877775554   120.95360753   248.55605171
 C     12  10   2     1.390162839194   118.19593121   179.31665845
 C     13  10   2     1.391196907684   119.87362054   180.86306066
 C     16  12  10     1.386436591953   120.26637093   359.87470268
 C     14  11   9     1.388580323583   120.98409350   184.22543950
 C     15  11   9     1.392627306380   121.00880297   176.01880964
 C     20  15  11     1.390215806762   120.09074979   359.83359251
 H      3   2   1     1.090155039852   106.50926877   179.90226041
 H      4   3   2     1.094017412263   109.84899801   314.49197907
 H      4   3   2     1.091198991691   108.22955414   198.41239778
 H      5   3   2     1.091767594533   106.41975094   178.27097737
 H      5   3   2     1.090738417391   110.70427060    62.72894196
 H      6   1   2     1.099758297008   110.37944635   222.86656864
 H      6   1   2     1.087760596540   109.58483867   105.25378022
 H      7   1   2     1.092236264427   108.21921974   274.91314014
 H      7   1   2     1.099514438295   111.46586606   157.46685751
 H      8   1   2     1.093585306091   106.78598054    64.69334942
 H      8   1   2     1.099704274156   112.05068218   181.47883033
 H      9   8   1     1.091915590987   110.63710583   279.52829468
 H      9   8   1     1.092999456037   108.12872267   163.55532533
 H     12  10   2     1.085055284894   121.10097908   358.89868976
 H     14  11   9     1.086270225094   119.48226965     4.58654743
 H     15  11   9     1.085674268125   119.50423267   355.14088498
 H     16  12  10     1.083568962673   119.69235145   179.68223153
 H     18  16  12     1.084920898270   119.49389307   179.89955740
 H     19  14  11     1.084262068599   119.87849520   180.13189905
 H     20  15  11     1.084978756674   119.80068723   178.64792644
 H     21  20  15     1.084175403561   120.36086557   179.35873903
 H      2   1   3     1.045942493605    32.29376652   180.34709142
 H      2   1   3     1.021961806199   116.60925976   256.79548431
 H     17  13  10     1.070000004143   120.87728173   179.77607778
 C     13  10   2     1.540000005581   120.01580682     1.94479197
 H     46  13  10     1.069999997896   109.47120246   252.89551154
 H     46  13  10     1.070000002975   109.47120211    12.89552672
 H     46  13  10     1.070000004729   109.47123167   132.89551805

---------------------------
INTERNAL COORDINATES (A.U.)
---------------------------
 N      0   0   0     0.000000000000     0.00000000     0.00000000
 N      1   0   0     5.079758242170     0.00000000     0.00000000
 C      2   1   0     2.869456393627    70.02680175     0.00000000
 C      3   2   1     2.885951917015   107.92031433   299.79130149
 C      3   2   1     2.882420219458   109.32744538    59.94914331
 C      1   2   3     2.762604908087    92.18698423    48.55239287
 C      1   2   3     2.759436727372    86.21322579   299.07207302
 C      1   2   3     2.754610912822   134.58445251   177.97148201
 C      8   1   2     2.906225962494   111.64877253   305.37867823
 C      2   1   3     2.764840524735   127.30711029   107.49902614
 C      9   8   1     2.854553961420   111.59597609    41.74879711
 C     10   2   1     2.611258682327   118.88311290     0.99487685
 C     10   2   1     2.617003532885   119.00207824   180.53622551
 C     11   9   8     2.638449064054   120.66778828    65.47926149
 C     11   9   8     2.632157533823   120.95360753   248.55605171
 C     12  10   2     2.627027047631   118.19593121   179.31665845
 C     13  10   2     2.628981153881   119.87362054   180.86306066
 C     16  12  10     2.619985460838   120.26637093   359.87470268
 C     14  11   9     2.624036526524   120.98409350   184.22543950
 C     15  11   9     2.631684215678   121.00880297   176.01880964
 C     20  15  11     2.627127141828   120.09074979   359.83359251
 H      3   2   1     2.060094468834   106.50926877   179.90226041
 H      4   3   2     2.067393294918   109.84899801   314.49197907
 H      4   3   2     2.062067251907   108.22955414   198.41239778
 H      5   3   2     2.063141755557   106.41975094   178.27097737
 H      5   3   2     2.061196892615   110.70427060    62.72894196
 H      6   1   2     2.078241994852   110.37944635   222.86656864
 H      6   1   2     2.055569626732   109.58483867   105.25378022
 H      7   1   2     2.064027413304   108.21921974   274.91314014
 H      7   1   2     2.077781168671   111.46586606   157.46685751
 H      8   1   2     2.066576732592   106.78598054    64.69334942
 H      8   1   2     2.078139906457   112.05068218   181.47883033
 H      9   8   1     2.063421428325   110.63710583   279.52829468
 H      9   8   1     2.065469636435   108.12872267   163.55532533
 H     12  10   2     2.050457328614   121.10097908   358.89868976
 H     14  11   9     2.052753232861   119.48226965     4.58654743
 H     15  11   9     2.051627037402   119.50423267   355.14088498
 H     16  12  10     2.047648586668   119.69235145   179.68223153
 H     18  16  12     2.050203374698   119.49389307   179.89955740
 H     19  14  11     2.048958367051   119.87849520   180.13189905
 H     20  15  11     2.050312711235   119.80068723   178.64792644
 H     21  20  15     2.048794593863   120.36086557   179.35873903
 H      2   1   3     1.976544864744    32.29376652   180.34709142
 H      2   1   3     1.931227933043   116.60925976   256.79548431
 H     17  13  10     2.022006971125   120.87728173   179.77607778
 C     13  10   2     2.910178256785   120.01580682     1.94479197
 H     46  13  10     2.022006959320   109.47120246   252.89551154
 H     46  13  10     2.022006968917   109.47120211    12.89552672
 H     46  13  10     2.022006972232   109.47123167   132.89551805

---------------------
BASIS SET INFORMATION
---------------------
There are 3 groups of distinct atoms

 Group   1 Type N   : 11s6p2d1f contracted to 5s3p2d1f pattern {62111/411/11/1}
 Group   2 Type C   : 11s6p2d1f contracted to 5s3p2d1f pattern {62111/411/11/1}
 Group   3 Type H   : 5s1p contracted to 3s1p pattern {311/1}

Atom   0N    basis set group =>   1
Atom   1N    basis set group =>   1
Atom   2C    basis set group =>   2
Atom   3C    basis set group =>   2
Atom   4C    basis set group =>   2
Atom   5C    basis set group =>   2
Atom   6C    basis set group =>   2
Atom   7C    basis set group =>   2
Atom   8C    basis set group =>   2
Atom   9C    basis set group =>   2
Atom  10C    basis set group =>   2
Atom  11C    basis set group =>   2
Atom  12C    basis set group =>   2
Atom  13C    basis set group =>   2
Atom  14C    basis set group =>   2
Atom  15C    basis set group =>   2
Atom  16C    basis set group =>   2
Atom  17C    basis set group =>   2
Atom  18C    basis set group =>   2
Atom  19C    basis set group =>   2
Atom  20C    basis set group =>   2
Atom  21H    basis set group =>   3
Atom  22H    basis set group =>   3
Atom  23H    basis set group =>   3
Atom  24H    basis set group =>   3
Atom  25H    basis set group =>   3
Atom  26H    basis set group =>   3
Atom  27H    basis set group =>   3
Atom  28H    basis set group =>   3
Atom  29H    basis set group =>   3
Atom  30H    basis set group =>   3
Atom  31H    basis set group =>   3
Atom  32H    basis set group =>   3
Atom  33H    basis set group =>   3
Atom  34H    basis set group =>   3
Atom  35H    basis set group =>   3
Atom  36H    basis set group =>   3
Atom  37H    basis set group =>   3
Atom  38H    basis set group =>   3
Atom  39H    basis set group =>   3
Atom  40H    basis set group =>   3
Atom  41H    basis set group =>   3
Atom  42H    basis set group =>   3
Atom  43H    basis set group =>   3
Atom  44H    basis set group =>   3
Atom  45C    basis set group =>   2
Atom  46H    basis set group =>   3
Atom  47H    basis set group =>   3
Atom  48H    basis set group =>   3
---------------------------------
AUXILIARY/J BASIS SET INFORMATION
---------------------------------
There are 3 groups of distinct atoms

 Group   1 Type N   : 12s5p4d2f1g contracted to 6s4p3d1f1g pattern {711111/2111/211/2/1}
 Group   2 Type C   : 12s5p4d2f1g contracted to 6s4p3d1f1g pattern {711111/2111/211/2/1}
 Group   3 Type H   : 5s2p1d contracted to 3s1p1d pattern {311/2/1}

Atom   0N    basis set group =>   1
Atom   1N    basis set group =>   1
Atom   2C    basis set group =>   2
Atom   3C    basis set group =>   2
Atom   4C    basis set group =>   2
Atom   5C    basis set group =>   2
Atom   6C    basis set group =>   2
Atom   7C    basis set group =>   2
Atom   8C    basis set group =>   2
Atom   9C    basis set group =>   2
Atom  10C    basis set group =>   2
Atom  11C    basis set group =>   2
Atom  12C    basis set group =>   2
Atom  13C    basis set group =>   2
Atom  14C    basis set group =>   2
Atom  15C    basis set group =>   2
Atom  16C    basis set group =>   2
Atom  17C    basis set group =>   2
Atom  18C    basis set group =>   2
Atom  19C    basis set group =>   2
Atom  20C    basis set group =>   2
Atom  21H    basis set group =>   3
Atom  22H    basis set group =>   3
Atom  23H    basis set group =>   3
Atom  24H    basis set group =>   3
Atom  25H    basis set group =>   3
Atom  26H    basis set group =>   3
Atom  27H    basis set group =>   3
Atom  28H    basis set group =>   3
Atom  29H    basis set group =>   3
Atom  30H    basis set group =>   3
Atom  31H    basis set group =>   3
Atom  32H    basis set group =>   3
Atom  33H    basis set group =>   3
Atom  34H    basis set group =>   3
Atom  35H    basis set group =>   3
Atom  36H    basis set group =>   3
Atom  37H    basis set group =>   3
Atom  38H    basis set group =>   3
Atom  39H    basis set group =>   3
Atom  40H    basis set group =>   3
Atom  41H    basis set group =>   3
Atom  42H    basis set group =>   3
Atom  43H    basis set group =>   3
Atom  44H    basis set group =>   3
Atom  45C    basis set group =>   2
Atom  46H    basis set group =>   3
Atom  47H    basis set group =>   3
Atom  48H    basis set group =>   3


           ************************************************************
           *        Program running with 8 parallel MPI-processes     *
           *              working on a common directory               *
           ************************************************************
------------------------------------------------------------------------------
                           ORCA GTO INTEGRAL CALCULATION
                           -- RI-GTO INTEGRALS CHOSEN --
------------------------------------------------------------------------------
------------------------------------------------------------------------------
                   ___                                                        
                  /   \      - P O W E R E D   B Y -                         
                 /     \                                                     
                 |  |  |   _    _      __       _____    __    __             
                 |  |  |  | |  | |    /  \     |  _  \  |  |  /  |          
                  \  \/   | |  | |   /    \    | | | |  |  | /  /          
                 / \  \   | |__| |  /  /\  \   | |_| |  |  |/  /          
                |  |  |   |  __  | /  /__\  \  |    /   |      \           
                |  |  |   | |  | | |   __   |  |    \   |  |\   \          
                \     /   | |  | | |  |  |  |  | |\  \  |  | \   \       
                 \___/    |_|  |_| |__|  |__|  |_| \__\ |__|  \__/        
                                                                              
                      - O R C A' S   B I G   F R I E N D -                    
                                      &                                       
                       - I N T E G R A L  F E E D E R -                       
                                                                              
 v1 FN, 2020, v2 2021                                                         
------------------------------------------------------------------------------


Reading SHARK input file desprop_oMe-Fentanyl_exoNProt_2.SHARKINP.tmp ... ok
----------------------
SHARK INTEGRAL PACKAGE
----------------------

Number of atoms                             ...     49
Number of basis functions                   ...    844
Number of shells                            ...    350
Maximum angular momentum                    ...      3
Integral batch strategy                     ... SHARK/LIBINT Hybrid
RI-J (if used) integral strategy            ... SPLIT-RIJ (Revised 2003 algorithm where possible)
Printlevel                                  ...      1
Contraction scheme used                     ... SEGMENTED contraction
Coulomb Range Separation                    ... NOT USED
Exchange Range Separation                   ... Long Range
   Mu parameter                             ...  0.300000
   Scaling (regular/separated)              ...  0.167000  0.833000
Finite Nucleus Model                        ... NOT USED
Auxiliary Coulomb fitting basis             ... AVAILABLE
   # of basis functions in Aux-J            ...   1375
   # of shells in Aux-J                     ...    465
   Maximum angular momentum in Aux-J        ...      4
Auxiliary J/K fitting basis                 ... NOT available
Auxiliary Correlation fitting basis         ... NOT available
Auxiliary 'external' fitting basis          ... NOT available
Integral threshold                          ...     2.500000e-11
Primitive cut-off                           ...     2.500000e-12
Primitive pair pre-selection threshold      ...     2.500000e-12

Calculating pre-screening integrals         ... done (  0.1 sec) Dimension = 350
Organizing shell pair data                  ... done (  0.5 sec)
Shell pair information
Total number of shell pairs                 ...     61425
Shell pairs after pre-screening             ...     48489
Total number of primitive shell pairs       ...    182068
Primitive shell pairs kept                  ...     96708
          la=0 lb=0:  14053 shell pairs
          la=1 lb=0:  14257 shell pairs
          la=1 lb=1:   3671 shell pairs
          la=2 lb=0:   6606 shell pairs
          la=2 lb=1:   3402 shell pairs
          la=2 lb=2:    826 shell pairs
          la=3 lb=0:   3084 shell pairs
          la=3 lb=1:   1632 shell pairs
          la=3 lb=2:    763 shell pairs
          la=3 lb=3:    195 shell pairs

Calculating one electron integrals          ... done (  0.1 sec)
Calculating RI/J V-Matrix + Cholesky decomp.... done (  0.1 sec)
Calculating Nuclear repulsion               ... done (  0.0 sec) ENN=   1947.488986391738 Eh

SHARK setup successfully completed in   1.3 seconds

Maximum memory used throughout the entire GTOINT-calculation: 69.7 MB
[1704171035.626705] [gra1290:176397:0]          mpool.c:42   UCX  WARN  object 0xb779e80 was not returned to mpool ucp_requests
[1704171035.626776] [gra1290:176399:0]          mpool.c:42   UCX  WARN  object 0xc5b1040 was not returned to mpool ucp_requests
[1704171035.626792] [gra1290:176399:0]          mpool.c:42   UCX  WARN  object 0xc5b1200 was not returned to mpool ucp_requests
[1704171035.626813] [gra1290:176399:0]          mpool.c:42   UCX  WARN  object 0xc5b13c0 was not returned to mpool ucp_requests
[1704171035.626802] [gra1290:176397:0]          mpool.c:42   UCX  WARN  object 0xb77a040 was not returned to mpool ucp_requests
[1704171035.626824] [gra1290:176397:0]          mpool.c:42   UCX  WARN  object 0xb77a200 was not returned to mpool ucp_requests
[1704171035.626835] [gra1290:176399:0]          mpool.c:42   UCX  WARN  object 0xc5b1580 was not returned to mpool ucp_requests
[1704171035.626848] [gra1290:176397:0]          mpool.c:42   UCX  WARN  object 0xb77a3c0 was not returned to mpool ucp_requests
[1704171035.626870] [gra1290:176397:0]          mpool.c:42   UCX  WARN  object 0xb77a580 was not returned to mpool ucp_requests
[1704171035.626859] [gra1290:176399:0]          mpool.c:42   UCX  WARN  object 0xc5b1740 was not returned to mpool ucp_requests
[1704171035.626880] [gra1290:176399:0]          mpool.c:42   UCX  WARN  object 0xc5b1900 was not returned to mpool ucp_requests
[1704171035.626891] [gra1290:176397:0]          mpool.c:42   UCX  WARN  object 0xb77a740 was not returned to mpool ucp_requests
[1704171035.626902] [gra1290:176399:0]          mpool.c:42   UCX  WARN  object 0xc5b1ac0 was not returned to mpool ucp_requests
[1704171035.626931] [gra1290:176399:0]          mpool.c:42   UCX  WARN  object 0xc5b1c80 was not returned to mpool ucp_requests
[1704171035.626913] [gra1290:176397:0]          mpool.c:42   UCX  WARN  object 0xb77a900 was not returned to mpool ucp_requests
[1704171035.626947] [gra1290:176397:0]          mpool.c:42   UCX  WARN  object 0xb77aac0 was not returned to mpool ucp_requests
[1704171035.626958] [gra1290:176397:0]          mpool.c:42   UCX  WARN  object 0xb77ac80 was not returned to mpool ucp_requests
[1704171035.626944] [gra1290:176396:0]          mpool.c:42   UCX  WARN  object 0xb614e00 was not returned to mpool ucp_requests
[1704171035.626961] [gra1290:176396:0]          mpool.c:42   UCX  WARN  object 0xb614fc0 was not returned to mpool ucp_requests
[1704171035.626968] [gra1290:176396:0]          mpool.c:42   UCX  WARN  object 0xb615180 was not returned to mpool ucp_requests
[1704171035.626970] [gra1290:176399:0]          mpool.c:42   UCX  WARN  object 0xc5b1e40 was not returned to mpool ucp_requests
[1704171035.626992] [gra1290:176399:0]          mpool.c:42   UCX  WARN  object 0xc5b2000 was not returned to mpool ucp_requests
[1704171035.626977] [gra1290:176396:0]          mpool.c:42   UCX  WARN  object 0xb615340 was not returned to mpool ucp_requests
[1704171035.626983] [gra1290:176396:0]          mpool.c:42   UCX  WARN  object 0xb615500 was not returned to mpool ucp_requests
[1704171035.626988] [gra1290:176396:0]          mpool.c:42   UCX  WARN  object 0xb6156c0 was not returned to mpool ucp_requests
[1704171035.626994] [gra1290:176396:0]          mpool.c:42   UCX  WARN  object 0xb615880 was not returned to mpool ucp_requests
[1704171035.626999] [gra1290:176396:0]          mpool.c:42   UCX  WARN  object 0xb615a40 was not returned to mpool ucp_requests
[1704171035.627004] [gra1290:176396:0]          mpool.c:42   UCX  WARN  object 0xb615c00 was not returned to mpool ucp_requests
[1704171035.627010] [gra1290:176396:0]          mpool.c:42   UCX  WARN  object 0xb615dc0 was not returned to mpool ucp_requests
[1704171035.627015] [gra1290:176396:0]          mpool.c:42   UCX  WARN  object 0xb615f80 was not returned to mpool ucp_requests
[1704171035.627020] [gra1290:176396:0]          mpool.c:42   UCX  WARN  object 0xb616140 was not returned to mpool ucp_requests
[1704171035.626981] [gra1290:176397:0]          mpool.c:42   UCX  WARN  object 0xb77ae40 was not returned to mpool ucp_requests
[1704171035.627002] [gra1290:176397:0]          mpool.c:42   UCX  WARN  object 0xb77b000 was not returned to mpool ucp_requests
[1704171035.627118] [gra1290:176397:0]          mpool.c:42   UCX  WARN  object 0xb77b1c0 was not returned to mpool ucp_requests
[1704171035.627563] [gra1290:176394:0]          mpool.c:42   UCX  WARN  object 0xab6f040 was not returned to mpool ucp_requests
[1704171035.627630] [gra1290:176398:0]          mpool.c:42   UCX  WARN  object 0xc1d60c0 was not returned to mpool ucp_requests
[1704171035.627647] [gra1290:176394:0]          mpool.c:42   UCX  WARN  object 0xab6f200 was not returned to mpool ucp_requests
[1704171035.627662] [gra1290:176398:0]          mpool.c:42   UCX  WARN  object 0xc1d6280 was not returned to mpool ucp_requests
[1704171035.627684] [gra1290:176398:0]          mpool.c:42   UCX  WARN  object 0xc1d6440 was not returned to mpool ucp_requests
[1704171035.627673] [gra1290:176394:0]          mpool.c:42   UCX  WARN  object 0xab6f3c0 was not returned to mpool ucp_requests
[1704171035.627695] [gra1290:176394:0]          mpool.c:42   UCX  WARN  object 0xab6f580 was not returned to mpool ucp_requests
[1704171035.627708] [gra1290:176398:0]          mpool.c:42   UCX  WARN  object 0xc1d6600 was not returned to mpool ucp_requests
[1704171035.627729] [gra1290:176398:0]          mpool.c:42   UCX  WARN  object 0xc1d67c0 was not returned to mpool ucp_requests
[1704171035.627718] [gra1290:176394:0]          mpool.c:42   UCX  WARN  object 0xab6f740 was not returned to mpool ucp_requests
[1704171035.627750] [gra1290:176398:0]          mpool.c:42   UCX  WARN  object 0xc1d6980 was not returned to mpool ucp_requests
[1704171035.627739] [gra1290:176394:0]          mpool.c:42   UCX  WARN  object 0xab6f900 was not returned to mpool ucp_requests
[1704171035.627760] [gra1290:176394:0]          mpool.c:42   UCX  WARN  object 0xab6fac0 was not returned to mpool ucp_requests
[1704171035.627771] [gra1290:176398:0]          mpool.c:42   UCX  WARN  object 0xc1d6b40 was not returned to mpool ucp_requests
[1704171035.627782] [gra1290:176394:0]          mpool.c:42   UCX  WARN  object 0xab6fc80 was not returned to mpool ucp_requests
[1704171035.627792] [gra1290:176398:0]          mpool.c:42   UCX  WARN  object 0xc1d6d00 was not returned to mpool ucp_requests
[1704171035.627803] [gra1290:176394:0]          mpool.c:42   UCX  WARN  object 0xab6fe40 was not returned to mpool ucp_requests
[1704171035.627824] [gra1290:176394:0]          mpool.c:42   UCX  WARN  object 0xab70000 was not returned to mpool ucp_requests
[1704171035.627814] [gra1290:176398:0]          mpool.c:42   UCX  WARN  object 0xc1d6ec0 was not returned to mpool ucp_requests
[1704171035.627837] [gra1290:176398:0]          mpool.c:42   UCX  WARN  object 0xc1d7080 was not returned to mpool ucp_requests
[1704171035.627851] [gra1290:176394:0]          mpool.c:42   UCX  WARN  object 0xab701c0 was not returned to mpool ucp_requests
[1704171035.628616] [gra1290:176393:0]          mpool.c:42   UCX  WARN  object 0xacf8740 was not returned to mpool ucp_requests
[1704171035.628640] [gra1290:176393:0]          mpool.c:42   UCX  WARN  object 0xacf8900 was not returned to mpool ucp_requests
[1704171035.628654] [gra1290:176393:0]          mpool.c:42   UCX  WARN  object 0xacf8ac0 was not returned to mpool ucp_requests
[1704171035.628661] [gra1290:176393:0]          mpool.c:42   UCX  WARN  object 0xacf8c80 was not returned to mpool ucp_requests
[1704171035.628666] [gra1290:176393:0]          mpool.c:42   UCX  WARN  object 0xacf8e40 was not returned to mpool ucp_requests
[1704171035.628676] [gra1290:176393:0]          mpool.c:42   UCX  WARN  object 0xacf9000 was not returned to mpool ucp_requests
[1704171035.628683] [gra1290:176393:0]          mpool.c:42   UCX  WARN  object 0xacf91c0 was not returned to mpool ucp_requests
[1704171035.629100] [gra1290:176395:0]          mpool.c:42   UCX  WARN  object 0xb2ca040 was not returned to mpool ucp_requests
[1704171035.629121] [gra1290:176395:0]          mpool.c:42   UCX  WARN  object 0xb2ca200 was not returned to mpool ucp_requests
[1704171035.629135] [gra1290:176395:0]          mpool.c:42   UCX  WARN  object 0xb2ca3c0 was not returned to mpool ucp_requests
[1704171035.629142] [gra1290:176395:0]          mpool.c:42   UCX  WARN  object 0xb2ca580 was not returned to mpool ucp_requests
[1704171035.629150] [gra1290:176395:0]          mpool.c:42   UCX  WARN  object 0xb2ca740 was not returned to mpool ucp_requests
[1704171035.629159] [gra1290:176395:0]          mpool.c:42   UCX  WARN  object 0xb2ca900 was not returned to mpool ucp_requests
[1704171035.629164] [gra1290:176395:0]          mpool.c:42   UCX  WARN  object 0xb2caac0 was not returned to mpool ucp_requests
[1704171035.629168] [gra1290:176395:0]          mpool.c:42   UCX  WARN  object 0xb2cac80 was not returned to mpool ucp_requests
[1704171035.629173] [gra1290:176395:0]          mpool.c:42   UCX  WARN  object 0xb2cae40 was not returned to mpool ucp_requests
[1704171035.629186] [gra1290:176395:0]          mpool.c:42   UCX  WARN  object 0xb2cb000 was not returned to mpool ucp_requests
[1704171035.629191] [gra1290:176395:0]          mpool.c:42   UCX  WARN  object 0xb2cb1c0 was not returned to mpool ucp_requests


           ************************************************************
           *        Program running with 8 parallel MPI-processes     *
           *              working on a common directory               *
           ************************************************************
-------------------------------------------------------------------------------
                                 ORCA SCF
-------------------------------------------------------------------------------

------------
SCF SETTINGS
------------
Hamiltonian:
 Density Functional     Method          .... DFT(GTOs)
 Exchange Functional    Exchange        .... WB97X-V
 Correlation Functional Correlation     .... WB97X-V
 Gradients option       PostSCFGGA      .... off
 Hybrid DFT is turned on
   Fraction HF Exchange ScalHFX         ....  0.167000
   Scaling of DF-GGA-X  ScalDFX         ....  0.000000
   Scaling of DF-GGA-C  ScalDFC         ....  1.000000
   Scaling of DF-LDA-C  ScalLDAC        ....  1.000000
   Perturbative correction              ....  0.000000
   Density functional embedding theory  .... OFF
 Long-range corrected/Screened/Range-Separated Hybrid DFT is turned on
   Amount of maximum screened exact exchange              ....  0.833000
   Range separation parameter mu (erf(mu*r12)/r12)        ....  0.300000
 RI-approximation to the Coulomb term is turned on
   Number of AuxJ basis functions       .... 1375
   RIJ-COSX (HFX calculated with COS-X)).... on


General Settings:
 Integral files         IntName         .... desprop_oMe-Fentanyl_exoNProt_2
 Hartree-Fock type      HFTyp           .... RHF
 Total Charge           Charge          ....    1
 Multiplicity           Mult            ....    1
 Number of Electrons    NEL             ....  160
 Basis Dimension        Dim             ....  844
 Nuclear Repulsion      ENuc            ....   1947.4889863917 Eh

Convergence Acceleration:
 DIIS                   CNVDIIS         .... on
   Start iteration      DIISMaxIt       ....    12
   Startup error        DIISStart       ....  0.200000
   # of expansion vecs  DIISMaxEq       ....     5
   Bias factor          DIISBfac        ....   1.050
   Max. coefficient     DIISMaxC        ....  10.000
 Trust-Rad. Augm. Hess. CNVTRAH         .... auto
   Auto Start mean grad. ratio tolernc. ....  1.125000
   Auto Start start iteration           ....    20
   Auto Start num. interpolation iter.  ....    10
   Max. Number of Micro iterations      ....    16
   Max. Number of Macro iterations      .... Maxiter - #DIIS iter
   Number of Davidson start vectors     ....     2
   Converg. threshold I  (grad. norm)   ....   1.000e-05
   Converg. threshold II (energy diff.) ....   1.000e-08
   Grad. Scal. Fac. for Micro threshold ....   0.100
   Minimum threshold for Micro iter.    ....   0.010
   NR start threshold (gradient norm)   ....   0.001
   Initial trust radius                 ....   0.400
   Minimum AH scaling param. (alpha)    ....   1.000
   Maximum AH scaling param. (alpha)    .... 1000.000
   Orbital update algorithm             .... Taylor
   White noise on init. David. guess    .... on
   Maximum white noise                  ....   0.010
   Quad. conv. algorithm                .... NR
 SOSCF                  CNVSOSCF        .... on
   Start iteration      SOSCFMaxIt      ....   150
   Startup grad/error   SOSCFStart      ....  0.003300
 Level Shifting         CNVShift        .... on
   Level shift para.    LevelShift      ....    0.2500
   Turn off err/grad.   ShiftErr        ....    0.0010
 Zerner damping         CNVZerner       .... off
 Static damping         CNVDamp         .... on
   Fraction old density DampFac         ....    0.7000
   Max. Damping (<1)    DampMax         ....    0.9800
   Min. Damping (>=0)   DampMin         ....    0.0000
   Turn off err/grad.   DampErr         ....    0.1000
 Fernandez-Rico         CNVRico         .... off

SCF Procedure:
 Maximum # iterations   MaxIter         ....   125
 SCF integral mode      SCFMode         .... Direct
   Integral package                     .... SHARK and LIBINT hybrid scheme
 Reset frequency        DirectResetFreq ....    20
 Integral Threshold     Thresh          ....  2.500e-11 Eh
 Primitive CutOff       TCut            ....  2.500e-12 Eh

Convergence Tolerance:
 Convergence Check Mode ConvCheckMode   .... Total+1el-Energy
 Convergence forced     ConvForced      .... 0
 Energy Change          TolE            ....  1.000e-08 Eh
 1-El. energy change                    ....  1.000e-05 Eh
 Orbital Gradient       TolG            ....  1.000e-05
 Orbital Rotation angle TolX            ....  1.000e-05
 DIIS Error             TolErr          ....  5.000e-07


Diagonalization of the overlap matrix:
Smallest eigenvalue                        ... 4.616e-06
Time for diagonalization                   ...    0.162 sec
Threshold for overlap eigenvalues          ... 1.000e-08
Number of eigenvalues below threshold      ... 0
Time for construction of square roots      ...    0.080 sec
Total time needed                          ...    0.246 sec

Time for model grid setup =    0.419 sec

------------------------------
INITIAL GUESS: MODEL POTENTIAL
------------------------------
Loading Hartree-Fock densities                     ... done
Calculating cut-offs                               ... done
Initializing the effective Hamiltonian             ... done
Setting up the integral package (SHARK)            ... done
Starting the Coulomb interaction                   ... done (   1.0 sec)
Reading the grid                                   ... done
Mapping shells                                     ... done
Starting the XC term evaluation                    ... done (   0.6 sec)
  promolecular density results
     # of electrons  =    160.990152797
     EX              =    -82.421065942
     EC              =     -6.579524627
     EX+EC           =    -89.000590569
Transforming the Hamiltonian                       ... done (   0.1 sec)
Diagonalizing the Hamiltonian                      ... done (   0.2 sec)
Back transforming the eigenvectors                 ... done (   0.0 sec)
Now organizing SCF variables                       ... done
                      ------------------
                      INITIAL GUESS DONE (   2.2 sec)
                      ------------------
-------------------
DFT GRID GENERATION
-------------------

General Integration Accuracy     IntAcc      ... 4.959
Radial Grid Type                 RadialGrid  ... OptM3 with GC (2021)
Angular Grid (max. ang.)         AngularGrid ... 6 (Lebedev-590)
Angular grid pruning method      GridPruning ... 4 (adaptive)
Weight generation scheme         WeightScheme... Becke
Basis function cutoff            BFCut       ... 1.0000e-11
Integration weight cutoff        WCut        ... 1.0000e-14
Angular grids for H and He will be reduced by one unit
Partially contracted basis set               ... off
Rotationally invariant grid construction     ... off

Total number of grid points                  ...   533420
Total number of batches                      ...     8363
Average number of points per batch           ...       63
Average number of grid points per atom       ...    10886
Time for grid setup =    6.918 sec

--------------------
COSX GRID GENERATION
--------------------

GRIDX 1
-------
General Integration Accuracy     IntAcc      ... 4.020
Radial Grid Type                 RadialGrid  ... OptM3 with GC (2021)
Angular Grid (max. ang.)         AngularGrid ... 2 (Lebedev-110)
Angular grid pruning method      GridPruning ... 4 (adaptive)
Weight generation scheme         WeightScheme... Becke
Basis function cutoff            BFCut       ... 1.0000e-11
Integration weight cutoff        WCut        ... 1.0000e-14
Angular grids for H and He will be reduced by one unit
Partially contracted basis set               ... on
Rotationally invariant grid construction     ... off

Total number of grid points                  ...    57166
Total number of batches                      ...      915
Average number of points per batch           ...       62
Average number of grid points per atom       ...     1167
UseSFitting                                  ... on

GRIDX 2
-------
General Integration Accuracy     IntAcc      ... 4.338
Radial Grid Type                 RadialGrid  ... OptM3 with GC (2021)
Angular Grid (max. ang.)         AngularGrid ... 3 (Lebedev-194)
Angular grid pruning method      GridPruning ... 4 (adaptive)
Weight generation scheme         WeightScheme... Becke
Basis function cutoff            BFCut       ... 1.0000e-11
Integration weight cutoff        WCut        ... 1.0000e-14
Angular grids for H and He will be reduced by one unit
Partially contracted basis set               ... on
Rotationally invariant grid construction     ... off

Total number of grid points                  ...   124035
Total number of batches                      ...     1961
Average number of points per batch           ...       63
Average number of grid points per atom       ...     2531
UseSFitting                                  ... on

GRIDX 3
-------
General Integration Accuracy     IntAcc      ... 4.871
Radial Grid Type                 RadialGrid  ... OptM3 with GC (2021)
Angular Grid (max. ang.)         AngularGrid ... 4 (Lebedev-302)
Angular grid pruning method      GridPruning ... 4 (adaptive)
Weight generation scheme         WeightScheme... Becke
Basis function cutoff            BFCut       ... 1.0000e-11
Integration weight cutoff        WCut        ... 1.0000e-14
Angular grids for H and He will be reduced by one unit
Partially contracted basis set               ... on
Rotationally invariant grid construction     ... off

Total number of grid points                  ...   236857
Total number of batches                      ...     3726
Average number of points per batch           ...       63
Average number of grid points per atom       ...     4834
UseSFitting                                  ... on

Time for X-Grid setup             =    4.974 sec

--------------
SCF ITERATIONS
--------------
ITER       Energy         Delta-E        Max-DP      RMS-DP      [F,P]     Damp
               ***  Starting incremental Fock matrix formation  ***
  0   -888.1791865986   0.000000000000 0.06826060  0.00069439  0.3106669 0.7000
  1   -888.2342484776  -0.055061878967 0.05751872  0.00061037  0.2098118 0.7000
                               ***Turning on DIIS***
  2   -888.2669492187  -0.032700741171 0.04365614  0.00046988  0.1430230 0.7000
  3   -888.2884311014  -0.021481882641 0.11209923  0.00124685  0.0980970 0.0000
  4   -888.3395290673  -0.051097965879 0.01221444  0.00015343  0.0057836 0.0000
  5   -888.3399092315  -0.000380164229 0.00491543  0.00006552  0.0033695 0.0000
                      *** Initiating the SOSCF procedure ***
                           *** Shutting down DIIS ***
                      *** Re-Reading the Fockian *** 
                      *** Removing any level shift *** 
ITER      Energy       Delta-E        Grad      Rot      Max-DP    RMS-DP
  6   -888.34000189  -0.0000926602  0.000402  0.000402  0.004514  0.000057
               *** Restarting incremental Fock matrix formation ***
  7   -888.34002550  -0.0000236082  0.000154  0.000373  0.000643  0.000009
  8   -888.34002620  -0.0000006976  0.000093  0.000177  0.000380  0.000004
  9   -888.34002664  -0.0000004435  0.000024  0.000085  0.000394  0.000005
 10   -888.34002667  -0.0000000288  0.000012  0.000034  0.000271  0.000003
 11   -888.34002672  -0.0000000465  0.000003  0.000009  0.000373  0.000004
                  ***Gradient check signals convergence***
              ***Rediagonalizing the Fockian in SOSCF/NRSCF***

               *****************************************************
               *                     SUCCESS                       *
               *           SCF CONVERGED AFTER  12 CYCLES          *
               *****************************************************

Old exchange energy                            =    -41.941706780 Eh
New exchange energy                            =    -41.941706492 Eh
Exchange energy change after final integration =      0.000000288 Eh
Total energy after final integration           =   -888.340026427 Eh
Final COS-X integration done in                =   157.197 sec

----------------
TOTAL SCF ENERGY
----------------

Total Energy       :         -888.34002643 Eh          -24172.96105 eV

Components:
Nuclear Repulsion  :         1947.48898639 Eh           52993.86948 eV
Electronic Energy  :        -2835.82901282 Eh          -77166.83052 eV
One Electron Energy:        -5048.59755811 Eh         -137379.32379 eV
Two Electron Energy:         2212.76854530 Eh           60212.49326 eV
Max COSX asymmetry :            0.00000036 Eh               0.00001 eV

Virial components:
Potential Energy   :        -1772.72343999 Eh          -48238.25719 eV
Kinetic Energy     :          884.38341356 Eh           24065.29614 eV
Virial Ratio       :            2.00447387


DFT components:
N(Alpha)           :       80.000002913996 electrons
N(Beta)            :       80.000002913996 electrons
N(Total)           :      160.000005827993 electrons
E(X)               :      -84.457172120118 Eh       
E(C)               :       -6.583197546289 Eh       
E(XC)              :      -91.040369666407 Eh       
DFET-embed. en.    :        0.000000000000 Eh       

---------------
SCF CONVERGENCE
---------------

  Last Energy change         ...    1.2624e-09  Tolerance :   1.0000e-08
  Last MAX-Density change    ...    1.6653e-15  Tolerance :   1.0000e-07
  Last RMS-Density change    ...    1.1901e-17  Tolerance :   5.0000e-09
  Last Orbital Gradient      ...    1.2528e-06  Tolerance :   1.0000e-05
[...]
 48:    862.42   0.000128    0.65  0.000046  ( 0.004916 -0.003680 -0.002950)
 49:    883.97   0.003554   17.96  0.001255  (-0.029223  0.003997  0.019611)
 50:    894.08   0.000584    2.95  0.000204  ( 0.007235 -0.003239 -0.011873)
 51:    905.52   0.000155    0.78  0.000053  ( 0.001030 -0.005100  0.005130)
 52:    923.50   0.000256    1.29  0.000087  ( 0.005602 -0.002764 -0.006891)
 53:    940.09   0.002026   10.24  0.000673  ( 0.021369 -0.011068 -0.009668)
 54:    953.26   0.002148   10.85  0.000703  ( 0.020959 -0.001284 -0.016191)
 55:    975.64   0.000592    2.99  0.000189  ( 0.012941  0.000212 -0.004679)
 56:    987.54   0.000484    2.45  0.000153  (-0.003311  0.011599 -0.002729)
 57:    992.48   0.000039    0.20  0.000012  ( 0.001889  0.000438  0.002907)
 58:   1016.11   0.000394    1.99  0.000121  ( 0.006756  0.002935  0.008166)
 59:   1019.63   0.002866   14.48  0.000877  (-0.021599  0.020237 -0.001026)
 60:   1025.14   0.000202    1.02  0.000061  (-0.000573  0.007082 -0.003302)
 61:   1026.16   0.001634    8.26  0.000497  (-0.000837  0.022223 -0.001526)
 62:   1031.16   0.000086    0.43  0.000026  (-0.001558  0.000248 -0.004841)
 63:   1036.39   0.000006    0.03  0.000002  (-0.000648  0.000819 -0.000888)
 64:   1043.91   0.000004    0.02  0.000001  (-0.000553  0.000870  0.000085)
 65:   1046.52   0.001418    7.17  0.000423  (-0.017013 -0.004282 -0.010730)
 66:   1068.30   0.000279    1.41  0.000082  (-0.007710 -0.002922  0.003683)
 67:   1071.30   0.003982   20.12  0.001160  (-0.028840  0.011159  0.014270)
 68:   1073.35   0.000305    1.54  0.000089  ( 0.000187 -0.009014 -0.002710)
 69:   1088.70   0.000769    3.89  0.000221  ( 0.008942 -0.005290  0.010610)
 70:   1114.77   0.000379    1.91  0.000106  ( 0.000400  0.009739  0.003320)
 71:   1128.65   0.003503   17.70  0.000969  ( 0.022940  0.003112 -0.020800)
 72:   1132.30   0.007342   37.11  0.002024  (-0.044611 -0.002570  0.005179)
 73:   1156.64   0.001095    5.53  0.000295  (-0.016081  0.002740 -0.005414)
 74:   1169.03   0.001627    8.22  0.000434  (-0.005981 -0.009062 -0.017790)
 75:   1183.70   0.000143    0.72  0.000038  ( 0.000584 -0.001413 -0.005939)
 76:   1189.98   0.000443    2.24  0.000116  (-0.007001 -0.003043  0.007612)
 77:   1205.60   0.006522   32.96  0.001688  ( 0.013719  0.033468 -0.019494)
 78:   1213.68   0.000389    1.97  0.000100  ( 0.008818 -0.004691 -0.000572)
 79:   1216.65   0.001820    9.20  0.000467  ( 0.013761 -0.016458 -0.002574)
 80:   1218.41   0.000916    4.63  0.000235  ( 0.005765  0.008843 -0.011100)
 81:   1220.49   0.001263    6.38  0.000323  ( 0.010568  0.014497 -0.001063)
 82:   1243.43   0.000222    1.12  0.000056  ( 0.001449  0.004733 -0.005598)
 83:   1264.82   0.001816    9.18  0.000448  (-0.011039  0.008983 -0.015669)
 84:   1271.31   0.000660    3.34  0.000162  (-0.005990  0.009210  0.006429)
 85:   1281.04   0.000847    4.28  0.000206  ( 0.012197 -0.004919 -0.005777)
 86:   1288.85   0.003076   15.55  0.000745  (-0.021549  0.016503  0.002855)
 87:   1303.72   0.000307    1.55  0.000074  (-0.005215 -0.003043 -0.006092)
 88:   1318.41   0.000497    2.51  0.000118  (-0.004368 -0.001604  0.009799)
 89:   1323.19   0.002022   10.22  0.000477  (-0.021625  0.002532  0.001684)
 90:   1327.09   0.002848   14.39  0.000670  ( 0.016276 -0.008389 -0.018289)
 91:   1341.18   0.000383    1.93  0.000089  ( 0.005766 -0.005507  0.005052)
 92:   1356.77   0.001812    9.16  0.000417  (-0.014255  0.014600  0.000603)
 93:   1366.22   0.000305    1.54  0.000070  (-0.005540 -0.002292 -0.005814)
 94:   1377.32   0.001405    7.10  0.000318  (-0.004722  0.011080  0.013168)
 95:   1384.17   0.001849    9.34  0.000417  (-0.012430  0.015509 -0.004666)
 96:   1395.19   0.000755    3.82  0.000169  (-0.003115  0.012601 -0.000656)
 97:   1401.68   0.001341    6.78  0.000299  (-0.006941 -0.010981  0.011394)
 98:   1413.40   0.012540   63.37  0.002769  ( 0.051309 -0.010162 -0.005735)
 99:   1423.29   0.006568   33.19  0.001440  (-0.025782  0.024308  0.013578)
100:   1432.29   0.003183   16.09  0.000693  (-0.018454  0.012536  0.013992)
101:   1438.20   0.003008   15.20  0.000653  ( 0.001719 -0.022511  0.011954)
102:   1447.20   0.002155   10.89  0.000465  (-0.017197  0.012386  0.003939)
103:   1489.27   0.000575    2.90  0.000120  ( 0.005713  0.005219 -0.007781)
104:   1497.66   0.003079   15.56  0.000642  (-0.001933  0.017192  0.018500)
105:   1502.96   0.001318    6.66  0.000274  ( 0.001827  0.013802 -0.008931)
106:   1503.64   0.000623    3.15  0.000129  ( 0.000798  0.011103  0.002332)
107:   1507.23   0.001558    7.87  0.000323  ( 0.003527  0.015839 -0.007695)
108:   1508.58   0.001884    9.52  0.000390  ( 0.008406  0.011726  0.013477)
109:   1517.18   0.000451    2.28  0.000093  (-0.006367 -0.006239  0.003635)
110:   1520.90   0.003964   20.03  0.000813  (-0.016037 -0.000161 -0.023584)
111:   1526.87   0.003090   15.62  0.000632  (-0.022489 -0.003755  0.010571)
112:   1540.20   0.006154   31.10  0.001247  ( 0.031012 -0.004737 -0.016207)
113:   1553.48   0.002787   14.08  0.000560  (-0.019671  0.002151  0.012970)
114:   1560.85   0.004952   25.03  0.000990  ( 0.019181  0.004881  0.024462)
115:   1665.86   0.000231    1.17  0.000043  (-0.003979 -0.000464 -0.005213)
116:   1670.44   0.015900   80.35  0.002970  ( 0.018186  0.051358  0.001426)
117:   1679.01   0.005101   25.78  0.000948  ( 0.009016  0.029017  0.004978)
118:   1689.37   0.001691    8.55  0.000312  ( 0.010668 -0.010133 -0.009795)
119:   1709.62   0.000632    3.19  0.000115  ( 0.005186  0.009186 -0.002017)
120:   3014.20   0.015001   75.81  0.001553  (-0.035715  0.011163  0.012365)
121:   3016.74   0.002560   12.94  0.000265  (-0.003927 -0.004301 -0.015196)
122:   3021.91   0.022550  113.96  0.002329  (-0.038224 -0.005046  0.029021)
123:   3056.58   0.002723   13.76  0.000278  (-0.013018 -0.003746 -0.009721)
124:   3076.51   0.036914  186.55  0.003744  (-0.049480 -0.035451  0.006266)
125:   3081.10   0.043145  218.04  0.004370  ( 0.051561  0.031341 -0.027000)
126:   3091.08   0.000491    2.48  0.000050  ( 0.006472  0.002561 -0.001065)
127:   3100.44   0.000611    3.09  0.000062  (-0.007144 -0.000412 -0.003208)
128:   3105.77   0.002461   12.44  0.000247  (-0.007950 -0.013290 -0.002737)
129:   3108.42   0.003509   17.73  0.000352  (-0.015181  0.006503 -0.008917)
130:   3118.14   0.001648    8.33  0.000165  ( 0.002173 -0.012478  0.002118)
131:   3133.33   0.001924    9.72  0.000192  (-0.008460  0.005684 -0.009366)
132:   3136.25   0.001263    6.38  0.000126  (-0.007212  0.008571 -0.000491)
133:   3148.63   0.001008    5.10  0.000100  (-0.006398  0.006215 -0.004514)
134:   3150.32   0.002128   10.75  0.000211  (-0.013898  0.000281 -0.004191)
135:   3166.46   0.002046   10.34  0.000202  (-0.002845 -0.011339 -0.008061)
136:   3169.07   0.000864    4.37  0.000085  (-0.008458 -0.000409  0.003663)
137:   3188.28   0.000756    3.82  0.000074  ( 0.004472 -0.000563 -0.007328)
138:   3189.72   0.000553    2.79  0.000054  (-0.006732  0.001289 -0.002668)
139:   3203.66   0.000405    2.05  0.000039  (-0.006200  0.000558 -0.000849)
140:   3208.39   0.000293    1.48  0.000028  (-0.003455 -0.001510  0.003777)
141:   3213.27   0.001075    5.43  0.000104  (-0.004898  0.000490 -0.008954)
142:   3214.07   0.000264    1.34  0.000026  ( 0.004625  0.002018  0.000436)
143:   3224.21   0.000768    3.88  0.000074  ( 0.007585  0.002699 -0.003079)
144:   3225.28   0.000577    2.92  0.000056  ( 0.007347  0.000410 -0.001292)
145:   3236.36   0.000144    0.73  0.000014  (-0.001591  0.000555 -0.003317)
146:   3467.04   0.009026   45.61  0.000812  (-0.001267  0.022111  0.017942)

* The epsilon (eps) is given for a Dirac delta lineshape.
** The dipole moment derivative (T) already includes vibrational overlap.

The first frequency considered to be a vibration is 6
The total number of vibrations considered is 141


--------------------------
THERMOCHEMISTRY AT 298.15K
--------------------------

Temperature         ... 298.15 K
Pressure            ... 1.00 atm
Total Mass          ... 295.45 AMU

Throughout the following assumptions are being made:
  (1) The electronic state is orbitally nondegenerate
  (2) There are no thermally accessible electronically excited states
  (3) Hindered rotations indicated by low frequency modes are not
      treated as such but are treated as vibrations and this may
      cause some error
  (4) All equations used are the standard statistical mechanics
      equations for an ideal gas
  (5) All vibrations are strictly harmonic

freq.      33.42  E(vib)   ...       0.55 
freq.      42.83  E(vib)   ...       0.53 
freq.      49.02  E(vib)   ...       0.53 
freq.      84.01  E(vib)   ...       0.48 
freq.      87.20  E(vib)   ...       0.48 
freq.     102.77  E(vib)   ...       0.46 
freq.     118.10  E(vib)   ...       0.44 
freq.     119.55  E(vib)   ...       0.44 
freq.     134.90  E(vib)   ...       0.42 
freq.     171.69  E(vib)   ...       0.38 
freq.     181.23  E(vib)   ...       0.37 
freq.     204.19  E(vib)   ...       0.35 
freq.     232.11  E(vib)   ...       0.32 
freq.     275.71  E(vib)   ...       0.28 
freq.     286.95  E(vib)   ...       0.27 
freq.     307.85  E(vib)   ...       0.26 
freq.     337.65  E(vib)   ...       0.24 
freq.     360.39  E(vib)   ...       0.22 
freq.     371.16  E(vib)   ...       0.21 
freq.     386.68  E(vib)   ...       0.20 
freq.     423.41  E(vib)   ...       0.18 
freq.     437.59  E(vib)   ...       0.17 
freq.     452.99  E(vib)   ...       0.16 
freq.     469.13  E(vib)   ...       0.16 
freq.     497.72  E(vib)   ...       0.14 
freq.     510.01  E(vib)   ...       0.14 
freq.     522.40  E(vib)   ...       0.13 
freq.     536.81  E(vib)   ...       0.12 
freq.     567.28  E(vib)   ...       0.11 
freq.     618.03  E(vib)   ...       0.09 
freq.     631.14  E(vib)   ...       0.09 
freq.     637.89  E(vib)   ...       0.09 
freq.     720.20  E(vib)   ...       0.07 
freq.     734.02  E(vib)   ...       0.06 
freq.     740.51  E(vib)   ...       0.06 
freq.     775.60  E(vib)   ...       0.05 
freq.     784.08  E(vib)   ...       0.05 
freq.     790.33  E(vib)   ...       0.05 
freq.     793.12  E(vib)   ...       0.05 
freq.     802.80  E(vib)   ...       0.05 
freq.     830.33  E(vib)   ...       0.04 
freq.     849.65  E(vib)   ...       0.04 
freq.     862.42  E(vib)   ...       0.04 
freq.     883.97  E(vib)   ...       0.04 
freq.     894.08  E(vib)   ...       0.03 
freq.     905.52  E(vib)   ...       0.03 
freq.     923.50  E(vib)   ...       0.03 
freq.     940.09  E(vib)   ...       0.03 
freq.     953.26  E(vib)   ...       0.03 
freq.     975.64  E(vib)   ...       0.03 
freq.     987.54  E(vib)   ...       0.02 
freq.     992.48  E(vib)   ...       0.02 
freq.    1016.11  E(vib)   ...       0.02 
freq.    1019.63  E(vib)   ...       0.02 
freq.    1025.14  E(vib)   ...       0.02 
freq.    1026.16  E(vib)   ...       0.02 
freq.    1031.16  E(vib)   ...       0.02 
freq.    1036.39  E(vib)   ...       0.02 
freq.    1043.91  E(vib)   ...       0.02 
freq.    1046.52  E(vib)   ...       0.02 
freq.    1068.30  E(vib)   ...       0.02 
freq.    1071.30  E(vib)   ...       0.02 
freq.    1073.35  E(vib)   ...       0.02 
freq.    1088.70  E(vib)   ...       0.02 
freq.    1114.77  E(vib)   ...       0.01 
freq.    1128.65  E(vib)   ...       0.01 
freq.    1132.30  E(vib)   ...       0.01 
freq.    1156.64  E(vib)   ...       0.01 
freq.    1169.03  E(vib)   ...       0.01 
freq.    1183.70  E(vib)   ...       0.01 
freq.    1189.98  E(vib)   ...       0.01 
freq.    1205.60  E(vib)   ...       0.01 
freq.    1213.68  E(vib)   ...       0.01 
freq.    1216.65  E(vib)   ...       0.01 
freq.    1218.41  E(vib)   ...       0.01 
freq.    1220.49  E(vib)   ...       0.01 
freq.    1243.43  E(vib)   ...       0.01 
freq.    1264.82  E(vib)   ...       0.01 
freq.    1271.31  E(vib)   ...       0.01 
freq.    1281.04  E(vib)   ...       0.01 
freq.    1288.85  E(vib)   ...       0.01 
freq.    1303.72  E(vib)   ...       0.01 
freq.    1318.41  E(vib)   ...       0.01 
freq.    1323.19  E(vib)   ...       0.01 
freq.    1327.09  E(vib)   ...       0.01 
freq.    1341.18  E(vib)   ...       0.01 
freq.    1356.77  E(vib)   ...       0.01 
freq.    1366.22  E(vib)   ...       0.01 
freq.    1377.32  E(vib)   ...       0.01 
freq.    1384.17  E(vib)   ...       0.00 
freq.    1395.19  E(vib)   ...       0.00 
freq.    1401.68  E(vib)   ...       0.00 
freq.    1413.40  E(vib)   ...       0.00 
freq.    1423.29  E(vib)   ...       0.00 
freq.    1432.29  E(vib)   ...       0.00 
freq.    1438.20  E(vib)   ...       0.00 
freq.    1447.20  E(vib)   ...       0.00 
freq.    1489.27  E(vib)   ...       0.00 
freq.    1497.66  E(vib)   ...       0.00 
freq.    1502.96  E(vib)   ...       0.00 
freq.    1503.64  E(vib)   ...       0.00 
freq.    1507.23  E(vib)   ...       0.00 
freq.    1508.58  E(vib)   ...       0.00 
freq.    1517.18  E(vib)   ...       0.00 
freq.    1520.90  E(vib)   ...       0.00 
freq.    1526.87  E(vib)   ...       0.00 
freq.    1540.20  E(vib)   ...       0.00 
freq.    1553.48  E(vib)   ...       0.00 
freq.    1560.85  E(vib)   ...       0.00 
freq.    1665.86  E(vib)   ...       0.00 
freq.    1670.44  E(vib)   ...       0.00 
freq.    1679.01  E(vib)   ...       0.00 
freq.    1689.37  E(vib)   ...       0.00 
freq.    1709.62  E(vib)   ...       0.00 
freq.    3014.20  E(vib)   ...       0.00 
freq.    3016.74  E(vib)   ...       0.00 
freq.    3021.91  E(vib)   ...       0.00 
freq.    3056.58  E(vib)   ...       0.00 
freq.    3076.51  E(vib)   ...       0.00 
freq.    3081.10  E(vib)   ...       0.00 
freq.    3091.08  E(vib)   ...       0.00 
freq.    3100.44  E(vib)   ...       0.00 
freq.    3105.77  E(vib)   ...       0.00 
freq.    3108.42  E(vib)   ...       0.00 
freq.    3118.14  E(vib)   ...       0.00 
freq.    3133.33  E(vib)   ...       0.00 
freq.    3136.25  E(vib)   ...       0.00 
freq.    3148.63  E(vib)   ...       0.00 
freq.    3150.32  E(vib)   ...       0.00 
freq.    3166.46  E(vib)   ...       0.00 
freq.    3169.07  E(vib)   ...       0.00 
freq.    3188.28  E(vib)   ...       0.00 
freq.    3189.72  E(vib)   ...       0.00 
freq.    3203.66  E(vib)   ...       0.00 
freq.    3208.39  E(vib)   ...       0.00 
freq.    3213.27  E(vib)   ...       0.00 
freq.    3214.07  E(vib)   ...       0.00 
freq.    3224.21  E(vib)   ...       0.00 
freq.    3225.28  E(vib)   ...       0.00 
freq.    3236.36  E(vib)   ...       0.00 
freq.    3467.04  E(vib)   ...       0.00 

------------
INNER ENERGY
------------

The inner energy is: U= E(el) + E(ZPE) + E(vib) + E(rot) + E(trans)
    E(el)   - is the total energy from the electronic structure calculation
              = E(kin-el) + E(nuc-el) + E(el-el) + E(nuc-nuc)
    E(ZPE)  - the the zero temperature vibrational energy from the frequency calculation
    E(vib)  - the the finite temperature correction to E(ZPE) due to population
              of excited vibrational states
    E(rot)  - is the rotational thermal energy
    E(trans)- is the translational thermal energy

Summary of contributions to the inner energy U:
Electronic energy                ...   -888.46958403 Eh
Zero point energy                ...      0.44227132 Eh     277.53 kcal/mol
Thermal vibrational correction   ...      0.01654643 Eh      10.38 kcal/mol
Thermal rotational correction    ...      0.00141627 Eh       0.89 kcal/mol
Thermal translational correction ...      0.00141627 Eh       0.89 kcal/mol
-----------------------------------------------------------------------
Total thermal energy                   -888.00793374 Eh


Summary of corrections to the electronic energy:
(perhaps to be used in another calculation)
Total thermal correction                  0.01937897 Eh      12.16 kcal/mol
Non-thermal (ZPE) correction              0.44227132 Eh     277.53 kcal/mol
-----------------------------------------------------------------------
Total correction                          0.46165029 Eh     289.69 kcal/mol


--------
ENTHALPY
--------

The enthalpy is H = U + kB*T
                kB is Boltzmann's constant
Total free energy                 ...   -888.00793374 Eh 
Thermal Enthalpy correction       ...      0.00094421 Eh       0.59 kcal/mol
-----------------------------------------------------------------------
Total Enthalpy                    ...   -888.00698953 Eh


Note: Only C1 symmetry has been detected, increase convergence thresholds 
      if your molecule has a higher symmetry. Symmetry factor of 1.0 is   
      used for the rotational entropy correction. 
 

Note: Rotational entropy computed according to Herzberg 
Infrared and Raman Spectra, Chapter V,1, Van Nostrand Reinhold, 1945 
Point Group:  C1, Symmetry Number:   1  
Rotational constants in cm-1:     0.013815     0.008762     0.007400 

Vibrational entropy computed according to the QRRHO of S. Grimme
Chem.Eur.J. 2012 18 9955


-------
ENTROPY
-------

The entropy contributions are T*S = T*(S(el)+S(vib)+S(rot)+S(trans))
     S(el)   - electronic entropy
     S(vib)  - vibrational entropy
     S(rot)  - rotational entropy
     S(trans)- translational entropy
The entropies will be listed as multiplied by the temperature to get
units of energy

Electronic entropy                ...      0.00000000 Eh      0.00 kcal/mol
Vibrational entropy               ...      0.02869462 Eh     18.01 kcal/mol
Rotational entropy                ...      0.01608496 Eh     10.09 kcal/mol
Translational entropy             ...      0.02040553 Eh     12.80 kcal/mol
-----------------------------------------------------------------------
Final entropy term                ...      0.06518512 Eh     40.90 kcal/mol

In case the symmetry of your molecule has not been determined correctly
or in case you have a reason to use a different symmetry number we print 
out the resulting rotational entropy values for sn=1,12 :
 --------------------------------------------------------
|  sn= 1 | S(rot)=       0.01608496 Eh     10.09 kcal/mol|
|  sn= 2 | S(rot)=       0.01543051 Eh      9.68 kcal/mol|
|  sn= 3 | S(rot)=       0.01504767 Eh      9.44 kcal/mol|
|  sn= 4 | S(rot)=       0.01477605 Eh      9.27 kcal/mol|
|  sn= 5 | S(rot)=       0.01456536 Eh      9.14 kcal/mol|
|  sn= 6 | S(rot)=       0.01439322 Eh      9.03 kcal/mol|
|  sn= 7 | S(rot)=       0.01424767 Eh      8.94 kcal/mol|
|  sn= 8 | S(rot)=       0.01412159 Eh      8.86 kcal/mol|
|  sn= 9 | S(rot)=       0.01401039 Eh      8.79 kcal/mol|
|  sn=10 | S(rot)=       0.01391091 Eh      8.73 kcal/mol|
|  sn=11 | S(rot)=       0.01382092 Eh      8.67 kcal/mol|
|  sn=12 | S(rot)=       0.01373876 Eh      8.62 kcal/mol|
 --------------------------------------------------------


-------------------
GIBBS FREE ENERGY
-------------------

The Gibbs free energy is G = H - T*S

Total enthalpy                    ...   -888.00698953 Eh 
Total entropy correction          ...     -0.06518512 Eh    -40.90 kcal/mol
-----------------------------------------------------------------------
Final Gibbs free energy         ...   -888.07217464 Eh

For completeness - the Gibbs free energy minus the electronic energy
G-E(el)                           ...      0.39740938 Eh    249.38 kcal/mol


Timings for individual modules:

Sum of individual times         ...    31140.589 sec (= 519.010 min)
GTO integral calculation        ...       45.612 sec (=   0.760 min)   0.1 %
SCF iterations                  ...    15966.025 sec (= 266.100 min)  51.3 %
SCF Gradient evaluation         ...     4477.079 sec (=  74.618 min)  14.4 %
Geometry relaxation             ...        5.364 sec (=   0.089 min)   0.0 %
Analytical frequency calculation...     8696.773 sec (= 144.946 min)  27.9 %
CHELPG charge generation        ...     1949.735 sec (=  32.496 min)   6.3 %
                             ****ORCA TERMINATED NORMALLY****
TOTAL RUN TIME: 0 days 8 hours 39 minutes 21 seconds 189 msec
