
Lmod is automatically replacing "intel/2020.1.217" with "gcc/10.3.0".


The following have been reloaded with a version change:
  1) gcccore/.9.3.0 => gcccore/.10.3.0        3) openmpi/4.0.3 => openmpi/4.1.1
  2) libfabric/1.10.1 => libfabric/1.12.1     4) ucx/1.8.0 => ucx/1.9.0

To execute ORCA, run: 
   ${EBROOTORCA}/orca orca.inp > orca.out
cp: cannot stat '/project/6006388/cieritan/Fentanyl_analogs/Despropionyl_ortho-Methylfentanyl/exoN-Prot/DFT/*.hess': No such file or directory
cp: cannot stat '/project/6006388/cieritan/Fentanyl_analogs/Despropionyl_ortho-Methylfentanyl/exoN-Prot/DFT/*.gbw': No such file or directory

                                 *****************
                                 * O   R   C   A *
                                 *****************

                                            #,                                       
                                            ###                                      
                                            ####                                     
                                            #####                                    
                                            ######                                   
                                           ########,                                 
                                     ,,################,,,,,                         
                               ,,#################################,,                 
                          ,,##########################################,,             
                       ,#########################################, ''#####,          
                    ,#############################################,,   '####,        
                  ,##################################################,,,,####,       
                ,###########''''           ''''###############################       
              ,#####''   ,,,,##########,,,,          '''####'''          '####       
            ,##' ,,,,###########################,,,                        '##       
           ' ,,###''''                  '''############,,,                           
         ,,##''                                '''############,,,,        ,,,,,,###''
      ,#''                                            '''#######################'''  
     '                                                          ''''####''''         
             ,#######,   #######,   ,#######,      ##                                
            ,#'     '#,  ##    ##  ,#'     '#,    #''#        ######   ,####,        
            ##       ##  ##   ,#'  ##            #'  '#       #        #'  '#        
            ##       ##  #######   ##           ,######,      #####,   #    #        
            '#,     ,#'  ##    ##  '#,     ,#' ,#      #,         ##   #,  ,#        
             '#######'   ##     ##  '#######'  #'      '#     #####' # '####'        



                  #######################################################
                  #                        -***-                        #
                  #          Department of theory and spectroscopy      #
                  #    Directorship and core code : Frank Neese         #
                  #        Max Planck Institute fuer Kohlenforschung    #
                  #                Kaiser Wilhelm Platz 1               #
                  #                 D-45470 Muelheim/Ruhr               #
                  #                      Germany                        #
                  #                                                     #
                  #                  All rights reserved                #
                  #                        -***-                        #
                  #######################################################


                         Program Version 5.0.4 -  RELEASE  -


 With contributions from (in alphabetic order):
   Daniel Aravena         : Magnetic Suceptibility
   Michael Atanasov       : Ab Initio Ligand Field Theory (pilot matlab implementation)
   Alexander A. Auer      : GIAO ZORA, VPT2 properties, NMR spectrum
   Ute Becker             : Parallelization
   Giovanni Bistoni       : ED, misc. LED, open-shell LED, HFLD
   Martin Brehm           : Molecular dynamics
   Dmytro Bykov           : SCF Hessian
   Vijay G. Chilkuri      : MRCI spin determinant printing, contributions to CSF-ICE
   Dipayan Datta          : RHF DLPNO-CCSD density
   Achintya Kumar Dutta   : EOM-CC, STEOM-CC
   Dmitry Ganyushin       : Spin-Orbit,Spin-Spin,Magnetic field MRCI
   Miquel Garcia          : C-PCM and meta-GGA Hessian, CC/C-PCM, Gaussian charge scheme
   Yang Guo               : DLPNO-NEVPT2, F12-NEVPT2, CIM, IAO-localization
   Andreas Hansen         : Spin unrestricted coupled pair/coupled cluster methods
   Benjamin Helmich-Paris : MC-RPA, TRAH-SCF, COSX integrals
   Lee Huntington         : MR-EOM, pCC
   Robert Izsak           : Overlap fitted RIJCOSX, COSX-SCS-MP3, EOM
   Marcus Kettner         : VPT2
   Christian Kollmar      : KDIIS, OOCD, Brueckner-CCSD(T), CCSD density, CASPT2, CASPT2-K
   Simone Kossmann        : Meta GGA functionals, TD-DFT gradient, OOMP2, MP2 Hessian
   Martin Krupicka        : Initial AUTO-CI
   Lucas Lang             : DCDCAS
   Marvin Lechner         : AUTO-CI (C++ implementation), FIC-MRCC
   Dagmar Lenk            : GEPOL surface, SMD
   Dimitrios Liakos       : Extrapolation schemes; Compound Job, initial MDCI parallelization
   Dimitrios Manganas     : Further ROCIS development; embedding schemes
   Dimitrios Pantazis     : SARC Basis sets
   Anastasios Papadopoulos: AUTO-CI, single reference methods and gradients
   Taras Petrenko         : DFT Hessian,TD-DFT gradient, ASA, ECA, R-Raman, ABS, FL, XAS/XES, NRVS
   Peter Pinski           : DLPNO-MP2, DLPNO-MP2 Gradient
   Christoph Reimann      : Effective Core Potentials
   Marius Retegan         : Local ZFS, SOC
   Christoph Riplinger    : Optimizer, TS searches, QM/MM, DLPNO-CCSD(T), (RO)-DLPNO pert. Triples
   Tobias Risthaus        : Range-separated hybrids, TD-DFT gradient, RPA, STAB
   Michael Roemelt        : Original ROCIS implementation
   Masaaki Saitow         : Open-shell DLPNO-CCSD energy and density
   Barbara Sandhoefer     : DKH picture change effects
   Avijit Sen             : IP-ROCIS
   Kantharuban Sivalingam : CASSCF convergence, NEVPT2, FIC-MRCI
   Bernardo de Souza      : ESD, SOC TD-DFT
   Georgi Stoychev        : AutoAux, RI-MP2 NMR, DLPNO-MP2 response
   Willem Van den Heuvel  : Paramagnetic NMR
   Boris Wezisla          : Elementary symmetry handling
   Frank Wennmohs         : Technical directorship


 We gratefully acknowledge several colleagues who have allowed us to
 interface, adapt or use parts of their codes:
   Stefan Grimme, W. Hujo, H. Kruse, P. Pracht,  : VdW corrections, initial TS optimization,
                  C. Bannwarth, S. Ehlert          DFT functionals, gCP, sTDA/sTD-DF
   Ed Valeev, F. Pavosevic, A. Kumar             : LibInt (2-el integral package), F12 methods
   Garnet Chan, S. Sharma, J. Yang, R. Olivares  : DMRG
   Ulf Ekstrom                                   : XCFun DFT Library
   Mihaly Kallay                                 : mrcc  (arbitrary order and MRCC methods)
   Jiri Pittner, Ondrej Demel                    : Mk-CCSD
   Frank Weinhold                                : gennbo (NPA and NBO analysis)
   Christopher J. Cramer and Donald G. Truhlar   : smd solvation model
   Lars Goerigk                                  : TD-DFT with DH, B97 family of functionals
   V. Asgeirsson, H. Jonsson                     : NEB implementation
   FAccTs GmbH                                   : IRC, NEB, NEB-TS, DLPNO-Multilevel, CI-OPT
                                                   MM, QMMM, 2- and 3-layer-ONIOM, Crystal-QMMM,
                                                   LR-CPCM, SF, NACMEs, symmetry and pop. for TD-DFT,
                                                   nearIR, NL-DFT gradient (VV10), updates on ESD,
                                                   ML-optimized integration grids
   S Lehtola, MJT Oliveira, MAL Marques          : LibXC Library
   Liviu Ungur et al                             : ANISO software


 Your calculation uses the libint2 library for the computation of 2-el integrals
 For citations please refer to: http://libint.valeyev.net

 Your ORCA version has been built with support for libXC version: 5.1.0
 For citations please refer to: https://tddft.org/programs/libxc/

 This ORCA versions uses:
   CBLAS   interface :  Fast vector & matrix operations
   LAPACKE interface :  Fast linear algebra routines
   SCALAPACK package :  Parallel linear algebra routines
   Shared memory     :  Shared parallel matrices
   BLAS/LAPACK       :  OpenBLAS 0.3.15  USE64BITINT DYNAMIC_ARCH NO_AFFINITY SkylakeX SINGLE_THREADED
        Core in use  :  SkylakeX
   Copyright (c) 2011-2014, The OpenBLAS Project


Your calculation utilizes the atom-pairwise dispersion correction
with the Becke-Johnson damping scheme (D3BJ)
Cite in your paper:
S.Grimme, S.Ehrlich, L.Goerigk, J Comput Chem, (2011), 32, 1456–1465 
S.Grimme, J.Antony, S.Ehrlich and H.Krieg, J.Chem.Phys., 132, (2010), 154104 
   

================================================================================

----- Orbital basis set information -----
Your calculation utilizes the basis: def2-TZVP
   F. Weigend and R. Ahlrichs, Phys. Chem. Chem. Phys. 7, 3297 (2005).

----- AuxJ basis set information -----
Your calculation utilizes the auxiliary basis: def2/J
   F. Weigend, Phys. Chem. Chem. Phys. 8, 1057 (2006).

================================================================================
                                        WARNINGS
                       Please study these warnings very carefully!
================================================================================


WARNING: Geometry Optimization
  ===> : Switching off AutoStart
         For restart on a previous wavefunction, please use MOREAD

INFO   : the flag for use of the SHARK integral package has been found!

================================================================================
                                       INPUT FILE
================================================================================
NAME = desprop_oMe-Fentanyl_exoNProt_93.inp
|  1> ! wB97X-D3BJ TightOpt Freq def2-TZVP def2/J RIJCOSX TightSCF defgrid3 CHELPG
|  2> %maxcore 3400
|  3> 
|  4> %pal nprocs 8 
|  5> end
|  6> 
|  7> %chelpg
|  8> grid 0.1
|  9> rmax 3.0
| 10> end
| 11> 
| 12> *xyz 1 1
| 13> N          -2.19328000       0.19935300      -0.49271600
| 14> N           0.08693600       0.83027900       0.77604700
| 15> C          -0.80262800       2.05621100       0.67380700
| 16> C          -1.07138300       2.36363400      -0.79585600
| 17> C          -2.10976300       1.74840100       1.40122000
| 18> C          -1.79899100       1.18859900      -1.49208100
| 19> C          -3.00913500       0.84155400       0.53641300
| 20> C          -2.74782500      -1.02961300      -1.04671300
| 21> C          -2.79284400      -2.15494600       0.00080600
| 22> C           1.41874100       0.96249600       0.18538600
| 23> C          -1.53629600      -2.18584300       0.83873000
| 24> C           1.75139164       0.16905843      -0.89579297
| 25> C           2.30820567       1.87260548       0.73188033
| 26> C          -0.30350300      -2.49922700       0.26303900
| 27> C          -1.56652200      -1.84120100       2.18801600
| 28> C           3.02496530       0.29782824      -1.43806388
| 29> C           3.58463051       2.00230070       0.19438022
| 30> C           3.92689697       1.20079473      -0.89656388
| 31> C           0.86766300      -2.44417500       1.00706000
| 32> C          -0.39660400      -1.78869200       2.94158000
| 33> C           0.82736800      -2.07954100       2.34980000
| 34> H          -0.26169900       2.87364400       1.15090800
| 35> H          -0.14364700       2.60777400      -1.31493400
| 36> H          -1.68764200       3.26464400      -0.81481200
| 37> H          -2.61017000       2.69329400       1.61904900
| 38> H          -1.89625600       1.27725500       2.36520600
| 39> H          -2.66731800       1.55883900      -2.05577300
| 40> H          -1.13472500       0.70277300      -2.21016900
| 41> H          -3.47629200       0.08103900       1.15813700
| 42> H          -3.82045600       1.42251900       0.07417000
| 43> H          -3.74861300      -0.87457900      -1.47531500
| 44> H          -2.09197300      -1.32943700      -1.86884500
| 45> H          -2.92701400      -3.10374500      -0.52495000
| 46> H          -3.66232700      -2.04044600       0.65133400
| 47> H          -0.26100700      -2.79589100      -0.78107800
| 48> H          -2.51817100      -1.62367400       2.66312700
| 49> H           3.30978980      -0.30916838      -2.28926996
| 50> H           4.91691844       1.29246766      -1.33074144
| 51> H           1.81505900      -2.69291200       0.54208700
| 52> H          -0.44538200      -1.53878400       3.99626700
| 53> H           1.73964400      -2.04994300       2.93488400
| 54> H           0.16691000       0.53260800       1.75045100
| 55> H          -0.49263100       0.09654400       0.30635600
| 56> H           2.00352020       2.49549498       1.56596499
| 57> H           4.28571484       2.69792460       0.60606958
| 58> C           0.73916010      -0.82579385      -1.49350213
| 59> H           1.07547496      -1.13968336      -2.45955891
| 60> H           0.65431452      -1.67741754      -0.85128853
| 61> H          -0.21561264      -0.35150887      -1.58495023
| 62> *
| 63> 
| 64> 
| 65>                          ****END OF INPUT****
================================================================================

                       *****************************
                       * Geometry Optimization Run *
                       *****************************

Geometry optimization settings:
Update method            Update   .... BFGS
Choice of coordinates    CoordSys .... Z-matrix Internals
Initial Hessian          InHess   .... Almoef's Model

Convergence Tolerances:
Energy Change            TolE     ....  1.0000e-06 Eh
Max. Gradient            TolMAXG  ....  1.0000e-04 Eh/bohr
RMS Gradient             TolRMSG  ....  3.0000e-05 Eh/bohr
Max. Displacement        TolMAXD  ....  1.0000e-03 bohr
RMS Displacement         TolRMSD  ....  6.0000e-04 bohr
Strict Convergence                ....  False
------------------------------------------------------------------------------
                        ORCA OPTIMIZATION COORDINATE SETUP
------------------------------------------------------------------------------

The optimization will be done in new redundant internal coordinates
Making redundant internal coordinates   ...  (new redundants) done
Evaluating the initial hessian          ...  (Almloef) done
Evaluating the coordinates              ...  done
Calculating the B-matrix                .... done
Calculating the G-matrix                .... done
Diagonalizing the G-matrix              .... done
Small eigenvalue found = 2.932e-03
Small eigenvalue found = 7.900e-03
Small eigenvalue found = 9.677e-03
Small eigenvalue found = 1.433e-02
Small eigenvalue found = 2.183e-02
The first mode is                       ....  143
The number of degrees of freedom        ....  141

    -----------------------------------------------------------------
                    Redundant Internal Coordinates


    -----------------------------------------------------------------
         Definition                    Initial Value    Approx d2E/dq
    -----------------------------------------------------------------
      1. B(C   2,N   1)                  1.5181         0.349518   
      2. B(C   3,C   2)                  1.5253         0.380032   
      3. B(C   4,C   2)                  1.5272         0.377374   
      4. B(C   5,N   0)                  1.4604         0.432054   
      5. B(C   5,C   3)                  1.5475         0.350275   
      6. B(C   6,C   4)                  1.5424         0.356882   
      7. B(C   6,N   0)                  1.4619         0.429700   
      8. B(C   7,N   0)                  1.4577         0.436434   
      9. B(C   8,C   7)                  1.5381         0.362646   
     10. B(C   9,N   1)                  1.4629         0.428128   
     11. B(C  10,C   8)                  1.5106         0.401135   
     12. B(C  11,C   9)                  1.3817         0.644095   
     13. B(C  12,C   9)                  1.3850         0.636482   
     14. B(C  13,C  10)                  1.3962         0.610699   
     15. B(C  14,C  10)                  1.3929         0.618099   
     16. B(C  15,C  11)                  1.3902         0.624360   
     17. B(C  16,C  12)                  1.3910         0.622418   
     18. B(C  17,C  16)                  1.3963         0.610451   
     19. B(C  17,C  15)                  1.3864         0.633159   
     20. B(C  18,C  13)                  1.3886         0.628003   
     21. B(C  19,C  14)                  1.3926         0.618866   
     22. B(C  20,C  19)                  1.3903         0.624133   
     23. B(C  20,C  18)                  1.3920         0.620330   
     24. B(H  21,C   2)                  1.0901         0.359902   
     25. B(H  22,C   3)                  1.0908         0.359106   
     26. B(H  23,C   3)                  1.0918         0.357771   
     27. B(H  24,C   4)                  1.0912         0.358539   
     28. B(H  25,C   4)                  1.0940         0.354849   
     29. B(H  26,C   5)                  1.0995         0.347797   
     30. B(H  27,C   5)                  1.0922         0.357186   
     31. B(H  28,C   6)                  1.0877         0.363114   
     32. B(H  29,C   6)                  1.0997         0.347441   
     33. B(H  30,C   7)                  1.0997         0.347510   
     34. B(H  31,C   7)                  1.0936         0.355383   
     35. B(H  32,C   8)                  1.0930         0.356158   
     36. B(H  33,C   8)                  1.0919         0.357564   
     37. B(H  34,C  13)                  1.0863         0.365060   
     38. B(H  35,C  14)                  1.0857         0.365871   
     39. B(H  36,C  15)                  1.0836         0.368709   
     40. B(H  37,C  17)                  1.0849         0.366880   
     41. B(H  38,C  18)                  1.0843         0.367768   
     42. B(H  39,C  19)                  1.0850         0.366792   
     43. B(H  40,C  20)                  1.0842         0.367882   
     44. B(H  41,H  39)                  3.1160         0.000040   
     45. B(H  41,N   1)                  1.0220         0.414060   
     46. B(H  42,N   1)                  1.0464         0.378600   
     47. B(H  43,C  12)                  1.0847         0.367212   
     48. B(H  44,C  16)                  1.0700         0.387554   
     49. B(C  45,C  11)                  1.5400         0.360100   
     50. B(H  46,C  45)                  1.0700         0.387554   
     51. B(H  47,H  34)                  1.4470         0.018576   
     52. B(H  47,C  45)                  1.0700         0.387554   
     53. B(H  48,C  45)                  1.0700         0.387554   
     54. A(C   5,N   0,C   7)          114.4397         0.377877   
     55. A(C   6,N   0,C   7)          115.1890         0.377520   
     56. A(C   5,N   0,C   6)          109.5625         0.376862   
     57. A(C   2,N   1,H  41)          110.1983         0.323509   
     58. A(C   2,N   1,H  42)          102.2087         0.318805   
     59. A(H  41,N   1,H  42)          105.4905         0.294814   
     60. A(C   2,N   1,C   9)          115.6758         0.363148   
     61. A(C   9,N   1,H  42)          112.7300         0.329603   
     62. A(C   9,N   1,H  41)          109.8796         0.334528   
     63. A(C   3,C   2,C   4)          110.4095         0.365049   
     64. A(N   1,C   2,H  21)          106.5761         0.318864   
     65. A(C   3,C   2,H  21)          110.9759         0.325204   
     66. A(N   1,C   2,C   4)          107.8594         0.357640   
     67. A(N   1,C   2,C   3)          109.3226         0.358067   
     68. A(C   4,C   2,H  21)          111.5531         0.324829   
     69. A(H  22,C   3,H  23)          106.6855         0.290417   
     70. A(C   2,C   3,H  23)          106.4103         0.324887   
     71. A(C   2,C   3,H  22)          110.7181         0.325086   
     72. A(C   2,C   3,C   5)          111.3020         0.360432   
     73. A(C   5,C   3,H  22)          110.8398         0.320769   
     74. A(C   5,C   3,H  23)          110.6969         0.320573   
     75. A(H  24,C   4,H  25)          106.6500         0.289972   
     76. A(C   2,C   4,H  25)          109.8435         0.324076   
     77. A(C   6,C   4,H  24)          110.7099         0.321668   
     78. A(C   2,C   4,H  24)          108.2433         0.324627   
     79. A(C   6,C   4,H  25)          110.7712         0.321124   
     80. A(C   2,C   4,C   6)          110.5178         0.361150   
     81. A(H  26,C   5,H  27)          107.0398         0.288890   
     82. A(N   0,C   5,C   3)          109.4755         0.366130   
     83. A(N   0,C   5,H  27)          108.2282         0.329749   
     84. A(C   3,C   5,H  27)          110.3393         0.320488   
     85. A(C   3,C   5,H  26)          110.2612         0.319096   
     86. A(N   0,C   5,H  26)          111.4517         0.328302   
     87. A(C   4,C   6,H  29)          110.8079         0.320018   
     88. A(H  28,C   6,H  29)          107.0232         0.289589   
     89. A(N   0,C   6,H  29)          110.3584         0.327951   
     90. A(C   4,C   6,H  28)          109.9389         0.322336   
     91. A(N   0,C   6,H  28)          109.5673         0.330349   
     92. A(N   0,C   6,C   4)          109.1209         0.366961   
     93. A(C   8,C   7,H  31)          109.2057         0.322046   
     94. A(C   8,C   7,H  30)          109.9958         0.320868   
     95. A(N   0,C   7,H  30)          112.0543         0.328804   
     96. A(N   0,C   7,C   8)          111.6632         0.368954   
     97. A(N   0,C   7,H  31)          106.7809         0.330023   
     98. A(H  30,C   7,H  31)          106.9440         0.288624   
     99. A(H  32,C   8,H  33)          106.2515         0.290015   
    100. A(C   7,C   8,H  33)          110.6301         0.322369   
    101. A(C  10,C   8,H  32)          110.5589         0.327546   
    102. A(C   7,C   8,H  32)          108.1262         0.322161   
    103. A(C   7,C   8,C  10)          111.6164         0.365940   
    104. A(C  10,C   8,H  33)          109.5141         0.327758   
    105. A(N   1,C   9,C  12)          118.9963         0.405587   
    106. A(N   1,C   9,C  11)          118.8956         0.406441   
    107. A(C  11,C   9,C  12)          122.1070         0.439130   
    108. A(C  13,C  10,C  14)          118.3006         0.432649   
    109. A(C   8,C  10,C  14)          120.9437         0.401464   
    110. A(C   8,C  10,C  13)          120.6857         0.400613   
    111. A(C   9,C  11,C  15)          118.2026         0.437609   
    112. A(C   9,C  11,C  45)          121.0925         0.396781   
    113. A(C  15,C  11,C  45)          120.7037         0.394620   
    114. A(C   9,C  12,C  16)          119.8753         0.436427   
    115. A(C  16,C  12,H  43)          120.0891         0.354313   
    116. A(C   9,C  12,H  43)          120.0264         0.355659   
    117. A(C  10,C  13,H  34)          119.4827         0.352823   
    118. A(C  10,C  13,C  18)          120.9888         0.433887   
    119. A(C  18,C  13,H  34)          119.5275         0.354497   
    120. A(C  10,C  14,C  19)          121.0152         0.433683   
    121. A(C  19,C  14,H  35)          119.4741         0.353751   
    122. A(C  10,C  14,H  35)          119.5051         0.353676   
    123. A(C  11,C  15,C  17)          120.2628         0.436261   
    124. A(C  17,C  15,H  36)          120.0447         0.355588   
    125. A(C  11,C  15,H  36)          119.6923         0.354745   
    126. A(C  12,C  16,C  17)          118.2487         0.433159   
    127. A(C  17,C  16,H  44)          120.8756         0.356393   
    128. A(C  12,C  16,H  44)          120.8756         0.357571   
    129. A(C  15,C  17,C  16)          121.3026         0.434494   
    130. A(C  16,C  17,H  37)          119.1991         0.353096   
    131. A(C  15,C  17,H  37)          119.4974         0.355288   
    132. A(C  13,C  18,C  20)          120.1874         0.435111   
    133. A(C  20,C  18,H  38)          119.9382         0.354203   
    134. A(C  13,C  18,H  38)          119.8729         0.354941   
    135. A(C  14,C  19,C  20)          120.0914         0.434442   
    136. A(C  20,C  19,H  39)          120.1013         0.354410   
    137. A(C  14,C  19,H  39)          119.7968         0.353901   
    138. A(C  18,C  20,C  19)          119.3991         0.434627   
    139. A(C  19,C  20,H  40)          120.3557         0.354588   
    140. A(C  18,C  20,H  40)          120.2231         0.354221   
    141. A(H  47,C  45,H  48)          109.4712         0.297665   
    142. A(H  46,C  45,H  48)          109.4712         0.297665   
    143. A(C  11,C  45,H  48)          109.4712         0.326284   
    144. A(H  46,C  45,H  47)          109.4713         0.297665   
    145. A(C  11,C  45,H  47)          109.4712         0.326284   
    146. A(C  11,C  45,H  46)          109.4712         0.326284   
    147. D(H  21,C   2,N   1,H  42)    179.8150         0.011263   
    148. D(H  21,C   2,N   1,H  41)     68.0522         0.011263   
    149. D(C   4,C   2,N   1,H  42)     59.9072         0.011263   
    150. D(C   3,C   2,N   1,H  42)    -60.1742         0.011263   
    151. D(C   3,C   2,N   1,H  41)   -171.9370         0.011263   
    152. D(C   4,C   2,N   1,C   9)   -177.2279         0.011263   
    153. D(C   4,C   2,N   1,H  41)    -51.8556         0.011263   
    154. D(H  21,C   2,N   1,C   9)    -57.3201         0.011263   
    155. D(C   3,C   2,N   1,C   9)     62.6907         0.011263   
    156. D(H  22,C   3,C   2,N   1)    -62.8587         0.011510   
    157. D(H  22,C   3,C   2,C   4)    178.6371         0.011510   
    158. D(H  23,C   3,C   2,N   1)   -178.4150         0.011510   
    159. D(H  23,C   3,C   2,H  21)    -61.1438         0.011510   
    160. D(C   5,C   3,C   2,N   1)     60.9019         0.011510   
    161. D(H  23,C   3,C   2,C   4)     63.0808         0.011510   
    162. D(C   5,C   3,C   2,C   4)    -57.6023         0.011510   
    163. D(C   5,C   3,C   2,H  21)    178.1731         0.011510   
    164. D(H  22,C   3,C   2,H  21)     54.4125         0.011510   
    165. D(H  24,C   4,C   2,H  21)     45.0440         0.011359   
    166. D(H  25,C   4,C   2,C   3)    165.0679         0.011359   
    167. D(H  25,C   4,C   2,N   1)     45.6739         0.011359   
    168. D(H  24,C   4,C   2,C   3)    -78.8483         0.011359   
    169. D(H  24,C   4,C   2,N   1)    161.7578         0.011359   
    170. D(H  25,C   4,C   2,H  21)    -71.0398         0.011359   
    171. D(C   6,C   4,C   2,N   1)    -76.8476         0.011359   
    172. D(C   6,C   4,C   2,C   3)     42.5464         0.011359   
    173. D(C   6,C   4,C   2,H  21)    166.4387         0.011359   
    174. D(H  26,C   5,N   0,C   7)     64.6555         0.015915   
    175. D(H  26,C   5,N   0,C   6)    -66.4633         0.015915   
    176. D(C   3,C   5,N   0,C   6)     55.7867         0.015915   
    177. D(C   3,C   5,N   0,C   7)   -173.0946         0.015915   
    178. D(H  27,C   5,C   3,H  23)    131.0584         0.009884   
    179. D(H  27,C   5,C   3,H  22)     12.8795         0.009884   
    180. D(H  27,C   5,C   3,C   2)   -110.8120         0.009884   
    181. D(H  26,C   5,C   3,H  22)   -105.1530         0.009884   
    182. D(H  26,C   5,C   3,H  23)     13.0259         0.009884   
    183. D(H  26,C   5,C   3,C   2)    131.1555         0.009884   
    184. D(N   0,C   5,C   3,H  23)   -109.9332         0.009884   
    185. D(N   0,C   5,C   3,H  22)    131.8879         0.009884   
    186. D(N   0,C   5,C   3,C   2)      8.1964         0.009884   
    187. D(H  27,C   5,N   0,C   7)    -52.7889         0.015915   
    188. D(H  27,C   5,N   0,C   6)    176.0924         0.015915   
    189. D(H  29,C   6,C   4,H  25)    134.8010         0.010231   
    190. D(H  29,C   6,C   4,H  24)     16.7013         0.010231   
    191. D(H  28,C   6,C   4,H  25)     16.7008         0.010231   
    192. D(H  28,C   6,C   4,H  24)   -101.3989         0.010231   
    193. D(H  28,C   6,C   4,C   2)    138.6781         0.010231   
    194. D(N   0,C   6,C   4,H  25)   -103.4872         0.010231   
    195. D(N   0,C   6,C   4,H  24)    138.4131         0.010231   
    196. D(N   0,C   6,C   4,C   2)     18.4902         0.010231   
    197. D(H  29,C   6,N   0,C   7)    -80.2907         0.015742   
    198. D(H  29,C   6,N   0,C   5)     50.4284         0.015742   
    199. D(H  28,C   6,N   0,C   7)     37.3094         0.015742   
    200. D(H  29,C   6,C   4,C   2)   -103.2216         0.010231   
    201. D(H  28,C   6,N   0,C   5)    168.0285         0.015742   
    202. D(C   4,C   6,N   0,C   7)    157.7258         0.015742   
    203. D(C   4,C   6,N   0,C   5)    -71.5552         0.015742   
    204. D(H  31,C   7,N   0,C   5)     45.5771         0.016240   
    205. D(H  30,C   7,N   0,C   6)     57.1243         0.016240   
    206. D(H  30,C   7,N   0,C   5)    -71.2051         0.016240   
    207. D(C   8,C   7,N   0,C   6)    -66.7868         0.016240   
    208. D(H  31,C   7,N   0,C   6)    173.9065         0.016240   
    209. D(C   8,C   7,N   0,C   5)    164.8837         0.016240   
    210. D(H  33,C   8,C   7,H  31)   -161.5327         0.010540   
    211. D(H  33,C   8,C   7,N   0)     80.6062         0.010540   
    212. D(H  32,C   8,C   7,H  31)    -45.5636         0.010540   
    213. D(H  32,C   8,C   7,H  30)     71.5123         0.010540   
    214. D(H  32,C   8,C   7,N   0)   -163.4246         0.010540   
    215. D(C  10,C   8,C   7,H  31)     76.2515         0.010540   
    216. D(H  33,C   8,C   7,H  30)    -44.4568         0.010540   
    217. D(C  10,C   8,C   7,H  30)   -166.6726         0.010540   
    218. D(C  10,C   8,C   7,N   0)    -41.6096         0.010540   
    219. D(C  12,C   9,N   1,H  42)   -178.2573         0.015627   
    220. D(C  12,C   9,N   1,H  41)    -60.9091         0.015627   
    221. D(C  12,C   9,N   1,C   2)     64.6265         0.015627   
    222. D(C  11,C   9,N   1,H  42)      1.3724         0.015627   
    223. D(C  11,C   9,N   1,H  41)    118.7206         0.015627   
    224. D(C  11,C   9,N   1,C   2)   -115.7438         0.015627   
    225. D(C  14,C  10,C   8,H  33)    -11.5350         0.011939   
    226. D(C  14,C  10,C   8,H  32)   -128.2802         0.011939   
    227. D(C  14,C  10,C   8,C   7)    111.3200         0.011939   
    228. D(C  13,C  10,C   8,H  33)    171.5578         0.011939   
    229. D(C  13,C  10,C   8,H  32)     54.8125         0.011939   
    230. D(C  13,C  10,C   8,C   7)    -65.5872         0.011939   
    231. D(C  45,C  11,C   9,C  12)   -179.4018         0.028849   
    232. D(C  45,C  11,C   9,N   1)      0.9806         0.028849   
    233. D(C  15,C  11,C   9,C  12)      0.1973         0.028849   
    234. D(C  15,C  11,C   9,N   1)   -179.4203         0.028849   
    235. D(H  43,C  12,C   9,C  11)    178.5401         0.028126   
    236. D(H  43,C  12,C   9,N   1)     -1.8427         0.028126   
    237. D(C  16,C  12,C   9,C  11)     -0.3563         0.028126   
    238. D(C  16,C  12,C   9,N   1)    179.2609         0.028126   
    239. D(H  34,C  13,C  10,C  14)    178.4060         0.025761   
    240. D(H  34,C  13,C  10,C   8)     -4.6066         0.025761   
    241. D(C  18,C  13,C  10,C  14)     -1.2482         0.025761   
    242. D(C  18,C  13,C  10,C   8)    175.7392         0.025761   
    243. D(H  35,C  14,C  10,C  13)   -178.1264         0.026427   
    244. D(H  35,C  14,C  10,C   8)      4.8943         0.026427   
    245. D(C  19,C  14,C  10,C  13)      1.0085         0.026427   
    246. D(C  19,C  14,C  10,C   8)   -175.9707         0.026427   
    247. D(H  36,C  15,C  11,C  45)     -0.1085         0.026998   
    248. D(H  36,C  15,C  11,C   9)   -179.7092         0.026998   
    249. D(C  17,C  15,C  11,C  45)    179.7010         0.026998   
    250. D(C  17,C  15,C  11,C   9)      0.1003         0.026998   
    251. D(H  44,C  16,C  12,H  43)      1.3136         0.026820   
    252. D(H  44,C  16,C  12,C   9)   -179.7907         0.026820   
    253. D(C  17,C  16,C  12,H  43)   -178.6864         0.026820   
    254. D(C  17,C  16,C  12,C   9)      0.2093         0.026820   
    255. D(H  37,C  17,C  16,H  44)     -0.2710         0.025739   
    256. D(H  37,C  17,C  16,C  12)    179.7290         0.025739   
    257. D(C  15,C  17,C  16,H  44)   -179.9172         0.025739   
    258. D(C  15,C  17,C  16,C  12)      0.0828         0.025739   
    259. D(H  37,C  17,C  15,H  36)     -0.0770         0.027814   
    260. D(H  37,C  17,C  15,C  11)   -179.8858         0.027814   
    261. D(C  16,C  17,C  15,H  36)    179.5682         0.027814   
    262. D(C  16,C  17,C  15,C  11)     -0.2407         0.027814   
    263. D(H  38,C  18,C  13,H  34)      0.2445         0.027334   
    264. D(H  38,C  18,C  13,C  10)    179.8985         0.027334   
    265. D(C  20,C  18,C  13,H  34)   -179.3168         0.027334   
    266. D(C  20,C  18,C  13,C  10)      0.3372         0.027334   
    267. D(H  39,C  19,C  14,H  35)      0.4513         0.026496   
    268. D(H  39,C  19,C  14,C  10)   -178.6838         0.026496   
    269. D(C  20,C  19,C  14,H  35)    179.2773         0.026496   
    270. D(C  20,C  19,C  14,C  10)      0.1421         0.026496   
    271. D(H  40,C  20,C  18,C  13)    179.1337         0.026629   
    272. D(C  19,C  20,C  18,H  38)   -178.7255         0.026629   
    273. D(C  19,C  20,C  18,C  13)      0.8356         0.026629   
    274. D(H  40,C  20,C  19,H  39)     -0.5452         0.026977   
    275. D(H  40,C  20,C  19,C  14)   -179.3675         0.026977   
    276. D(C  18,C  20,C  19,H  39)    177.7507         0.026977   
    277. D(C  18,C  20,C  19,C  14)     -1.0717         0.026977   
    278. D(H  40,C  20,C  18,H  38)     -0.4274         0.026629   
    279. D(H  48,C  45,C  11,C  15)   -134.9652         0.009750   
    280. D(H  48,C  45,C  11,C   9)     44.6239         0.009750   
    281. D(H  47,C  45,C  11,C  15)    105.0348         0.009750   
    282. D(H  47,C  45,C  11,C   9)    -75.3761         0.009750   
    283. D(H  46,C  45,C  11,C  15)    -14.9652         0.009750   
    284. D(H  46,C  45,C  11,C   9)    164.6239         0.009750   
    -----------------------------------------------------------------

Number of atoms                         .... 49
Number of degrees of freedom            .... 284

         *************************************************************
         *                GEOMETRY OPTIMIZATION CYCLE   1            *
         *************************************************************
---------------------------------
CARTESIAN COORDINATES (ANGSTROEM)
---------------------------------
  N     -2.193280    0.199353   -0.492716
  N      0.086936    0.830279    0.776047
  C     -0.802628    2.056211    0.673807
  C     -1.071383    2.363634   -0.795856
  C     -2.109763    1.748401    1.401220
  C     -1.798991    1.188599   -1.492081
  C     -3.009135    0.841554    0.536413
  C     -2.747825   -1.029613   -1.046713
  C     -2.792844   -2.154946    0.000806
  C      1.418741    0.962496    0.185386
  C     -1.536296   -2.185843    0.838730
  C      1.751392    0.169058   -0.895793
  C      2.308206    1.872605    0.731880
  C     -0.303503   -2.499227    0.263039
  C     -1.566522   -1.841201    2.188016
  C      3.024965    0.297828   -1.438064
  C      3.584631    2.002301    0.194380
  C      3.926897    1.200795   -0.896564
  C      0.867663   -2.444175    1.007060
  C     -0.396604   -1.788692    2.941580
  C      0.827368   -2.079541    2.349800
  H     -0.261699    2.873644    1.150908
  H     -0.143647    2.607774   -1.314934
  H     -1.687642    3.264644   -0.814812
  H     -2.610170    2.693294    1.619049
  H     -1.896256    1.277255    2.365206
  H     -2.667318    1.558839   -2.055773
  H     -1.134725    0.702773   -2.210169
  H     -3.476292    0.081039    1.158137
  H     -3.820456    1.422519    0.074170
  H     -3.748613   -0.874579   -1.475315
  H     -2.091973   -1.329437   -1.868845
  H     -2.927014   -3.103745   -0.524950
  H     -3.662327   -2.040446    0.651334
  H     -0.261007   -2.795891   -0.781078
  H     -2.518171   -1.623674    2.663127
  H      3.309790   -0.309168   -2.289270
  H      4.916918    1.292468   -1.330741
  H      1.815059   -2.692912    0.542087
  H     -0.445382   -1.538784    3.996267
  H      1.739644   -2.049943    2.934884
  H      0.166910    0.532608    1.750451
  H     -0.492631    0.096544    0.306356
  H      2.003520    2.495495    1.565965
  H      4.285715    2.697925    0.606070
  C      0.739160   -0.825794   -1.493502
  H      1.075475   -1.139683   -2.459559
  H      0.654315   -1.677418   -0.851289
  H     -0.215613   -0.351509   -1.584950

----------------------------
CARTESIAN COORDINATES (A.U.)
----------------------------
  NO LB      ZA    FRAG     MASS         X           Y           Z
   0 N     7.0000    0    14.007   -4.144699    0.376723   -0.931098
   1 N     7.0000    0    14.007    0.164285    1.569000    1.466516
   2 C     6.0000    0    12.011   -1.516747    3.885676    1.273311
   3 C     6.0000    0    12.011   -2.024620    4.466621   -1.503950
   4 C     6.0000    0    12.011   -3.986874    3.303999    2.647922
   5 C     6.0000    0    12.011   -3.399600    2.246127   -2.819624
   6 C     6.0000    0    12.011   -5.686441    1.590307    1.013674
   7 C     6.0000    0    12.011   -5.192637   -1.945687   -1.978001
   8 C     6.0000    0    12.011   -5.277710   -4.072258    0.001523
   9 C     6.0000    0    12.011    2.681032    1.818854    0.350329
  10 C     6.0000    0    12.011   -2.903179   -4.130645    1.584970
  11 C     6.0000    0    12.011    3.309651    0.319474   -1.692803
  12 C     6.0000    0    12.011    4.361877    3.538712    1.383053
  13 C     6.0000    0    12.011   -0.573538   -4.722855    0.497072
  14 C     6.0000    0    12.011   -2.960298   -3.479366    4.134751
  15 C     6.0000    0    12.011    5.716356    0.562814   -2.717547
  16 C     6.0000    0    12.011    6.773970    3.783800    0.367325
  17 C     6.0000    0    12.011    7.420760    2.269173   -1.694260
  18 C     6.0000    0    12.011    1.639645   -4.618821    1.903068
  19 C     6.0000    0    12.011   -0.749473   -3.380138    5.558781
  20 C     6.0000    0    12.011    1.563499   -3.929763    4.440478
  21 H     1.0000    0     1.008   -0.494539    5.430400    2.174901
  22 H     1.0000    0     1.008   -0.271453    4.927979   -2.484865
  23 H     1.0000    0     1.008   -3.189181    6.169283   -1.539772
  24 H     1.0000    0     1.008   -4.932506    5.089588    3.059559
  25 H     1.0000    0     1.008   -3.583405    2.413662    4.469592
  26 H     1.0000    0     1.008   -5.040501    2.945779   -3.884848
  27 H     1.0000    0     1.008   -2.144319    1.328049   -4.176614
  28 H     1.0000    0     1.008   -6.569240    0.153142    2.188562
  29 H     1.0000    0     1.008   -7.219616    2.688171    0.140161
  30 H     1.0000    0     1.008   -7.083852   -1.652715   -2.787941
  31 H     1.0000    0     1.008   -3.953256   -2.512272   -3.531605
  32 H     1.0000    0     1.008   -5.531255   -5.865228   -0.992012
  33 H     1.0000    0     1.008   -6.920795   -3.855884    1.230843
  34 H     1.0000    0     1.008   -0.493232   -5.283468   -1.476024
  35 H     1.0000    0     1.008   -4.758654   -3.068299    5.032581
  36 H     1.0000    0     1.008    6.254596   -0.584244   -4.326093
  37 H     1.0000    0     1.008    9.291629    2.442410   -2.514737
  38 H     1.0000    0     1.008    3.429964   -5.088866    1.024396
  39 H     1.0000    0     1.008   -0.841650   -2.907880    7.551850
  40 H     1.0000    0     1.008    3.287451   -3.873831    5.546127
  41 H     1.0000    0     1.008    0.315414    1.006483    3.307873
  42 H     1.0000    0     1.008   -0.930938    0.182442    0.578929
  43 H     1.0000    0     1.008    3.786104    4.715802    2.959245
  44 H     1.0000    0     1.008    8.098827    5.098339    1.145306
  45 C     6.0000    0    12.011    1.396810   -1.560524   -2.822310
  46 H     1.0000    0     1.008    2.032353   -2.153689   -4.647893
  47 H     1.0000    0     1.008    1.236475   -3.169860   -1.608702
  48 H     1.0000    0     1.008   -0.407449   -0.664255   -2.995122

--------------------------------
INTERNAL COORDINATES (ANGSTROEM)
--------------------------------
 N      0   0   0     0.000000000000     0.00000000     0.00000000
 N      1   0   0     2.684625145956     0.00000000     0.00000000
 C      2   1   0     1.518119361684    70.13887616     0.00000000
 C      3   2   1     1.525335203987   109.32255183   300.10851132
 C      3   2   1     1.527245421304   107.85940290    60.18995299
 C      1   2   3     1.460411540376    86.26721522    60.86032581
 C      1   2   3     1.461898766696    92.18195414   311.39087026
 C      1   2   3     1.457666032461   134.49796469   182.00321162
 C      8   1   2     1.538082288634   111.66322077    54.62237510
 C      2   1   3     1.462896547961   127.13324754   252.28246472
 C      9   8   1     1.510623755503   111.61639625   318.39043437
 C     10   2   1     1.381719070922   118.89564825   328.00927817
 C     10   2   1     1.384955853985   118.99629493   148.37959848
 C     11   9   8     1.396212104154   120.68574327   294.41280564
 C     11   9   8     1.392933748976   120.94371969   111.32001872
 C     12  10   2     1.390190372304   118.20256724   180.57965899
 C     13  10   2     1.391038313818   119.87533535   179.26089500
 C     16  12  10     1.386380708684   120.26277791     0.10029997
 C     14  11   9     1.388606413171   120.98884538   175.73922153
 C     15  11   9     1.392596145299   121.01517573   184.02927219
 C     20  15  11     1.390289238247   120.09144576     0.14212456
 H      3   2   1     1.090149648778   106.57614904   180.09774391
 H      4   3   2     1.090752215391   110.71811411   297.14126499
 H      4   3   2     1.091766231900   106.41029040   181.58495990
 H      5   3   2     1.091182578829   108.24330373   161.75775562
 H      5   3   2     1.093998537733   109.84345690    45.67393301
 H      6   1   2     1.099462644837   111.45173969   202.54499317
 H      6   1   2     1.092211791172   108.22815659    85.10063365
 H      7   1   2     1.087731336337   109.56725274   254.84104865
 H      7   1   2     1.099741191060   110.35841069   137.24093813
 H      8   1   2     1.099687153923   112.05433115   178.53350824
 H      8   1   2     1.093589183516   106.78087747   295.31570974
 H      9   8   1     1.092996112910   108.12624512   196.57537022
 H      9   8   1     1.091923814226   110.63010858    80.60622564
 H     14  11   9     1.086276092253   119.48274130   355.39337528
 H     15  11   9     1.085672269726   119.50509108     4.89434869
 H     16  12  10     1.083568956329   119.69228414   180.29081345
 H     18  16  12     1.084922389281   119.49738531   180.11422836
 H     19  14  11     1.084264343559   119.87294129   179.89854592
 H     20  15  11     1.084987543577   119.79684368   181.31616156
 H     21  20  15     1.084180256616   120.35566665   180.63246853
 H      2   1   3     1.021991692791   116.65458437   103.26405777
 H      2   1   3     1.046362553418    32.07103837   179.47959949
 H     13  10   2     1.084675889327   120.02638858   358.15730455
 H     17  13  10     1.069999989327   120.87564448   180.20931266
 C     12  10   2     1.539999996604   121.09245934     0.98058756
 H     46  12  10     1.070000005481   109.47120235   164.62388262
 H     46  12  10     1.069999995252   109.47120320   284.62389686
 H     46  12  10     1.069999991726   109.47123144    44.62389038

---------------------------
INTERNAL COORDINATES (A.U.)
---------------------------
 N      0   0   0     0.000000000000     0.00000000     0.00000000
 N      1   0   0     5.073206298096     0.00000000     0.00000000
 C      2   1   0     2.868829832186    70.13887616     0.00000000
 C      3   2   1     2.882465797965   109.32255183   300.10851132
 C      3   2   1     2.886075585550   107.85940290    60.18995299
 C      1   2   3     2.759777854128    86.26721522    60.86032581
 C      1   2   3     2.762588304572    92.18195414   311.39087026
 C      1   2   3     2.754589596070   134.49796469   182.00321162
 C      8   1   2     2.906554296954   111.66322077    54.62237510
 C      2   1   3     2.764473837904   127.13324754   252.28246472
 C      9   8   1     2.854665189296   111.61639625   318.39043437
 C     10   2   1     2.611070638059   118.89564825   328.00927817
 C     10   2   1     2.617187271602   118.99629493   148.37959848
 C     11   9   8     2.638458501717   120.68574327   294.41280564
 C     11   9   8     2.632263308261   120.94371969   111.32001872
 C     12  10   2     2.627079077668   118.20256724   180.57965899
 C     13  10   2     2.628681454908   119.87533535   179.26089500
 C     16  12  10     2.619879856765   120.26277791     0.10029997
 C     14  11   9     2.624085828701   120.98884538   175.73922153
 C     15  11   9     2.631625329769   121.01517573   184.02927219
 C     20  15  11     2.627265907225   120.09144576     0.14212456
 H      3   2   1     2.060084281181   106.57614904   180.09774391
 H      4   3   2     2.061222967057   110.71811411   297.14126499
 H      4   3   2     2.063139180554   106.41029040   181.58495990
 H      5   3   2     2.062036236092   108.24330373   161.75775562
 H      5   3   2     2.067357627225   109.84345690    45.67393301
 H      6   1   2     2.077683293220   111.45173969   202.54499317
 H      6   1   2     2.063981165555   108.22815659    85.10063365
 H      7   1   2     2.055514332962   109.56725274   254.84104865
 H      7   1   2     2.078209669297   110.35841069   137.24093813
 H      8   1   2     2.078107553906   112.05433115   178.53350824
 H      8   1   2     2.066584059864   106.78087747   295.31570974
 H      9   8   1     2.065463318841   108.12624512   196.57537022
 H      9   8   1     2.063436967993   110.63010858    80.60622564
 H     14  11   9     2.052764320185   119.48274130   355.39337528
 H     15  11   9     2.051623260974   119.50509108     4.89434869
 H     16  12  10     2.047648574681   119.69228414   180.29081345
 H     18  16  12     2.050206192301   119.49738531   180.11422836
 H     19  14  11     2.048962666103   119.87294129   179.89854592
 H     20  15  11     2.050329316076   119.79684368   181.31616156
 H     21  20  15     2.048803764809   120.35566665   180.63246853
 H      2   1   3     1.931284410517   116.65458437   103.26405777
 H      2   1   3     1.977338662750    32.07103837   179.47959949
 H     13  10   2     2.049740374895   120.02638858   358.15730455
 H     17  13  10     2.022006943127   120.87564448   180.20931266
 C     12  10   2     2.910178239821   121.09245934     0.98058756
 H     46  12  10     2.022006973653   109.47120235   164.62388262
 H     46  12  10     2.022006954324   109.47120320   284.62389686
 H     46  12  10     2.022006947661   109.47123144    44.62389038

---------------------
BASIS SET INFORMATION
---------------------
There are 3 groups of distinct atoms

 Group   1 Type N   : 11s6p2d1f contracted to 5s3p2d1f pattern {62111/411/11/1}
 Group   2 Type C   : 11s6p2d1f contracted to 5s3p2d1f pattern {62111/411/11/1}
 Group   3 Type H   : 5s1p contracted to 3s1p pattern {311/1}

Atom   0N    basis set group =>   1
Atom   1N    basis set group =>   1
Atom   2C    basis set group =>   2
Atom   3C    basis set group =>   2
Atom   4C    basis set group =>   2
Atom   5C    basis set group =>   2
Atom   6C    basis set group =>   2
Atom   7C    basis set group =>   2
Atom   8C    basis set group =>   2
Atom   9C    basis set group =>   2
Atom  10C    basis set group =>   2
Atom  11C    basis set group =>   2
Atom  12C    basis set group =>   2
Atom  13C    basis set group =>   2
Atom  14C    basis set group =>   2
Atom  15C    basis set group =>   2
Atom  16C    basis set group =>   2
Atom  17C    basis set group =>   2
Atom  18C    basis set group =>   2
Atom  19C    basis set group =>   2
Atom  20C    basis set group =>   2
Atom  21H    basis set group =>   3
Atom  22H    basis set group =>   3
Atom  23H    basis set group =>   3
Atom  24H    basis set group =>   3
Atom  25H    basis set group =>   3
Atom  26H    basis set group =>   3
Atom  27H    basis set group =>   3
Atom  28H    basis set group =>   3
Atom  29H    basis set group =>   3
Atom  30H    basis set group =>   3
Atom  31H    basis set group =>   3
Atom  32H    basis set group =>   3
Atom  33H    basis set group =>   3
Atom  34H    basis set group =>   3
Atom  35H    basis set group =>   3
Atom  36H    basis set group =>   3
Atom  37H    basis set group =>   3
Atom  38H    basis set group =>   3
Atom  39H    basis set group =>   3
Atom  40H    basis set group =>   3
Atom  41H    basis set group =>   3
Atom  42H    basis set group =>   3
Atom  43H    basis set group =>   3
Atom  44H    basis set group =>   3
Atom  45C    basis set group =>   2
Atom  46H    basis set group =>   3
Atom  47H    basis set group =>   3
Atom  48H    basis set group =>   3
---------------------------------
AUXILIARY/J BASIS SET INFORMATION
---------------------------------
There are 3 groups of distinct atoms

 Group   1 Type N   : 12s5p4d2f1g contracted to 6s4p3d1f1g pattern {711111/2111/211/2/1}
 Group   2 Type C   : 12s5p4d2f1g contracted to 6s4p3d1f1g pattern {711111/2111/211/2/1}
 Group   3 Type H   : 5s2p1d contracted to 3s1p1d pattern {311/2/1}

Atom   0N    basis set group =>   1
Atom   1N    basis set group =>   1
Atom   2C    basis set group =>   2
Atom   3C    basis set group =>   2
Atom   4C    basis set group =>   2
Atom   5C    basis set group =>   2
Atom   6C    basis set group =>   2
Atom   7C    basis set group =>   2
Atom   8C    basis set group =>   2
Atom   9C    basis set group =>   2
Atom  10C    basis set group =>   2
Atom  11C    basis set group =>   2
Atom  12C    basis set group =>   2
Atom  13C    basis set group =>   2
Atom  14C    basis set group =>   2
Atom  15C    basis set group =>   2
Atom  16C    basis set group =>   2
Atom  17C    basis set group =>   2
Atom  18C    basis set group =>   2
Atom  19C    basis set group =>   2
Atom  20C    basis set group =>   2
Atom  21H    basis set group =>   3
Atom  22H    basis set group =>   3
Atom  23H    basis set group =>   3
Atom  24H    basis set group =>   3
Atom  25H    basis set group =>   3
Atom  26H    basis set group =>   3
Atom  27H    basis set group =>   3
Atom  28H    basis set group =>   3
Atom  29H    basis set group =>   3
Atom  30H    basis set group =>   3
Atom  31H    basis set group =>   3
Atom  32H    basis set group =>   3
Atom  33H    basis set group =>   3
Atom  34H    basis set group =>   3
Atom  35H    basis set group =>   3
Atom  36H    basis set group =>   3
Atom  37H    basis set group =>   3
Atom  38H    basis set group =>   3
Atom  39H    basis set group =>   3
Atom  40H    basis set group =>   3
Atom  41H    basis set group =>   3
Atom  42H    basis set group =>   3
Atom  43H    basis set group =>   3
Atom  44H    basis set group =>   3
Atom  45C    basis set group =>   2
Atom  46H    basis set group =>   3
Atom  47H    basis set group =>   3
Atom  48H    basis set group =>   3


           ************************************************************
           *        Program running with 8 parallel MPI-processes     *
           *              working on a common directory               *
           ************************************************************
------------------------------------------------------------------------------
                           ORCA GTO INTEGRAL CALCULATION
                           -- RI-GTO INTEGRALS CHOSEN --
------------------------------------------------------------------------------
------------------------------------------------------------------------------
                   ___                                                        
                  /   \      - P O W E R E D   B Y -                         
                 /     \                                                     
                 |  |  |   _    _      __       _____    __    __             
                 |  |  |  | |  | |    /  \     |  _  \  |  |  /  |          
                  \  \/   | |  | |   /    \    | | | |  |  | /  /          
                 / \  \   | |__| |  /  /\  \   | |_| |  |  |/  /          
                |  |  |   |  __  | /  /__\  \  |    /   |      \           
                |  |  |   | |  | | |   __   |  |    \   |  |\   \          
                \     /   | |  | | |  |  |  |  | |\  \  |  | \   \       
                 \___/    |_|  |_| |__|  |__|  |_| \__\ |__|  \__/        
                                                                              
                      - O R C A' S   B I G   F R I E N D -                    
                                      &                                       
                       - I N T E G R A L  F E E D E R -                       
                                                                              
 v1 FN, 2020, v2 2021                                                         
------------------------------------------------------------------------------


Reading SHARK input file desprop_oMe-Fentanyl_exoNProt_93.SHARKINP.tmp ... ok
----------------------
SHARK INTEGRAL PACKAGE
----------------------

Number of atoms                             ...     49
Number of basis functions                   ...    844
Number of shells                            ...    350
Maximum angular momentum                    ...      3
Integral batch strategy                     ... SHARK/LIBINT Hybrid
RI-J (if used) integral strategy            ... SPLIT-RIJ (Revised 2003 algorithm where possible)
Printlevel                                  ...      1
Contraction scheme used                     ... SEGMENTED contraction
Coulomb Range Separation                    ... NOT USED
Exchange Range Separation                   ... Long Range
   Mu parameter                             ...  0.300000
   Scaling (regular/separated)              ...  0.167000  0.833000
Finite Nucleus Model                        ... NOT USED
Auxiliary Coulomb fitting basis             ... AVAILABLE
   # of basis functions in Aux-J            ...   1375
   # of shells in Aux-J                     ...    465
   Maximum angular momentum in Aux-J        ...      4
Auxiliary J/K fitting basis                 ... NOT available
Auxiliary Correlation fitting basis         ... NOT available
Auxiliary 'external' fitting basis          ... NOT available
Integral threshold                          ...     2.500000e-11
Primitive cut-off                           ...     2.500000e-12
Primitive pair pre-selection threshold      ...     2.500000e-12

Calculating pre-screening integrals         ... done (  0.1 sec) Dimension = 350
Organizing shell pair data                  ... done (  0.5 sec)
Shell pair information
Total number of shell pairs                 ...     61425
Shell pairs after pre-screening             ...     49294
Total number of primitive shell pairs       ...    182068
Primitive shell pairs kept                  ...     98837
          la=0 lb=0:  14274 shell pairs
          la=1 lb=0:  14461 shell pairs
          la=1 lb=1:   3730 shell pairs
          la=2 lb=0:   6721 shell pairs
          la=2 lb=1:   3460 shell pairs
          la=2 lb=2:    839 shell pairs
          la=3 lb=0:   3155 shell pairs
          la=3 lb=1:   1674 shell pairs
          la=3 lb=2:    776 shell pairs
          la=3 lb=3:    204 shell pairs

Calculating one electron integrals          ... done (  0.1 sec)
Calculating RI/J V-Matrix + Cholesky decomp.... done (  0.1 sec)
Calculating Nuclear repulsion               ... done (  0.0 sec) ENN=   1980.445091304387 Eh

SHARK setup successfully completed in   1.3 seconds

Maximum memory used throughout the entire GTOINT-calculation: 70.8 MB
[1704170664.742490] [gra1298:273396:0]          mpool.c:42   UCX  WARN  object 0xb224400 was not returned to mpool ucp_requests
[1704170664.742516] [gra1298:273396:0]          mpool.c:42   UCX  WARN  object 0xb2245c0 was not returned to mpool ucp_requests
[1704170664.742528] [gra1298:273396:0]          mpool.c:42   UCX  WARN  object 0xb224780 was not returned to mpool ucp_requests
[1704170664.742535] [gra1298:273396:0]          mpool.c:42   UCX  WARN  object 0xb224b00 was not returned to mpool ucp_requests
[1704170664.742540] [gra1298:273396:0]          mpool.c:42   UCX  WARN  object 0xb224cc0 was not returned to mpool ucp_requests
[1704170664.742545] [gra1298:273396:0]          mpool.c:42   UCX  WARN  object 0xb224e80 was not returned to mpool ucp_requests
[1704170664.742774] [gra1298:273401:0]          mpool.c:42   UCX  WARN  object 0xafb8200 was not returned to mpool ucp_requests
[1704170664.742794] [gra1298:273401:0]          mpool.c:42   UCX  WARN  object 0xafb83c0 was not returned to mpool ucp_requests
[1704170664.742801] [gra1298:273401:0]          mpool.c:42   UCX  WARN  object 0xafb8580 was not returned to mpool ucp_requests
[1704170664.742808] [gra1298:273401:0]          mpool.c:42   UCX  WARN  object 0xafb8740 was not returned to mpool ucp_requests
[1704170664.742817] [gra1298:273401:0]          mpool.c:42   UCX  WARN  object 0xafb8900 was not returned to mpool ucp_requests
[1704170664.742822] [gra1298:273401:0]          mpool.c:42   UCX  WARN  object 0xafb8ac0 was not returned to mpool ucp_requests
[1704170664.742827] [gra1298:273401:0]          mpool.c:42   UCX  WARN  object 0xafb8c80 was not returned to mpool ucp_requests
[1704170664.742832] [gra1298:273401:0]          mpool.c:42   UCX  WARN  object 0xafb8e40 was not returned to mpool ucp_requests
[1704170664.742837] [gra1298:273401:0]          mpool.c:42   UCX  WARN  object 0xafb9000 was not returned to mpool ucp_requests
[1704170664.742842] [gra1298:273401:0]          mpool.c:42   UCX  WARN  object 0xafb91c0 was not returned to mpool ucp_requests
[1704170664.744331] [gra1298:273397:0]          mpool.c:42   UCX  WARN  object 0xbf2ad00 was not returned to mpool ucp_requests
[1704170664.744351] [gra1298:273397:0]          mpool.c:42   UCX  WARN  object 0xbf2aec0 was not returned to mpool ucp_requests
[1704170664.744358] [gra1298:273397:0]          mpool.c:42   UCX  WARN  object 0xbf2b080 was not returned to mpool ucp_requests
[1704170664.744364] [gra1298:273397:0]          mpool.c:42   UCX  WARN  object 0xbf2b240 was not returned to mpool ucp_requests
[1704170664.744369] [gra1298:273397:0]          mpool.c:42   UCX  WARN  object 0xbf2b400 was not returned to mpool ucp_requests
[1704170664.744374] [gra1298:273397:0]          mpool.c:42   UCX  WARN  object 0xbf2b5c0 was not returned to mpool ucp_requests
[1704170664.744379] [gra1298:273397:0]          mpool.c:42   UCX  WARN  object 0xbf2b780 was not returned to mpool ucp_requests
[1704170664.744384] [gra1298:273397:0]          mpool.c:42   UCX  WARN  object 0xbf2b940 was not returned to mpool ucp_requests
[1704170664.744397] [gra1298:273397:0]          mpool.c:42   UCX  WARN  object 0xbf2bb00 was not returned to mpool ucp_requests
[1704170664.744402] [gra1298:273397:0]          mpool.c:42   UCX  WARN  object 0xbf2bcc0 was not returned to mpool ucp_requests
[1704170664.744410] [gra1298:273397:0]          mpool.c:42   UCX  WARN  object 0xbf2be80 was not returned to mpool ucp_requests
[1704170664.745062] [gra1298:273398:0]          mpool.c:42   UCX  WARN  object 0xab9bf00 was not returned to mpool ucp_requests
[1704170664.745083] [gra1298:273398:0]          mpool.c:42   UCX  WARN  object 0xab9c0c0 was not returned to mpool ucp_requests
[1704170664.745094] [gra1298:273398:0]          mpool.c:42   UCX  WARN  object 0xab9c280 was not returned to mpool ucp_requests
[1704170664.745101] [gra1298:273398:0]          mpool.c:42   UCX  WARN  object 0xab9c440 was not returned to mpool ucp_requests
[1704170664.745113] [gra1298:273398:0]          mpool.c:42   UCX  WARN  object 0xab9c600 was not returned to mpool ucp_requests
[1704170664.745124] [gra1298:273398:0]          mpool.c:42   UCX  WARN  object 0xab9c7c0 was not returned to mpool ucp_requests
[1704170664.745131] [gra1298:273398:0]          mpool.c:42   UCX  WARN  object 0xab9c980 was not returned to mpool ucp_requests
[1704170664.745136] [gra1298:273398:0]          mpool.c:42   UCX  WARN  object 0xab9cb40 was not returned to mpool ucp_requests
[1704170664.745141] [gra1298:273398:0]          mpool.c:42   UCX  WARN  object 0xab9cd00 was not returned to mpool ucp_requests
[1704170664.745146] [gra1298:273398:0]          mpool.c:42   UCX  WARN  object 0xab9cec0 was not returned to mpool ucp_requests
[1704170664.745155] [gra1298:273398:0]          mpool.c:42   UCX  WARN  object 0xab9d080 was not returned to mpool ucp_requests
[1704170664.745130] [gra1298:273400:0]          mpool.c:42   UCX  WARN  object 0xad6ab40 was not returned to mpool ucp_requests
[1704170664.745148] [gra1298:273400:0]          mpool.c:42   UCX  WARN  object 0xad6ad00 was not returned to mpool ucp_requests
[1704170664.745155] [gra1298:273400:0]          mpool.c:42   UCX  WARN  object 0xad6aec0 was not returned to mpool ucp_requests
[1704170664.745161] [gra1298:273400:0]          mpool.c:42   UCX  WARN  object 0xad6b080 was not returned to mpool ucp_requests
[1704170664.745179] [gra1298:273400:0]          mpool.c:42   UCX  WARN  object 0xad6b240 was not returned to mpool ucp_requests
[1704170664.745186] [gra1298:273400:0]          mpool.c:42   UCX  WARN  object 0xad6b400 was not returned to mpool ucp_requests
[1704170664.745196] [gra1298:273400:0]          mpool.c:42   UCX  WARN  object 0xad6b5c0 was not returned to mpool ucp_requests
[1704170664.745202] [gra1298:273400:0]          mpool.c:42   UCX  WARN  object 0xad6b780 was not returned to mpool ucp_requests
[1704170664.745208] [gra1298:273400:0]          mpool.c:42   UCX  WARN  object 0xad6b940 was not returned to mpool ucp_requests
[1704170664.745213] [gra1298:273400:0]          mpool.c:42   UCX  WARN  object 0xad6bb00 was not returned to mpool ucp_requests
[1704170664.745218] [gra1298:273400:0]          mpool.c:42   UCX  WARN  object 0xad6bcc0 was not returned to mpool ucp_requests
[1704170664.745223] [gra1298:273400:0]          mpool.c:42   UCX  WARN  object 0xad6be80 was not returned to mpool ucp_requests
[1704170664.746096] [gra1298:273402:0]          mpool.c:42   UCX  WARN  object 0xbb97f40 was not returned to mpool ucp_requests
[1704170664.746116] [gra1298:273402:0]          mpool.c:42   UCX  WARN  object 0xbb98100 was not returned to mpool ucp_requests
[1704170664.746128] [gra1298:273402:0]          mpool.c:42   UCX  WARN  object 0xbb982c0 was not returned to mpool ucp_requests
[1704170664.746135] [gra1298:273402:0]          mpool.c:42   UCX  WARN  object 0xbb98480 was not returned to mpool ucp_requests
[1704170664.746141] [gra1298:273402:0]          mpool.c:42   UCX  WARN  object 0xbb98640 was not returned to mpool ucp_requests
[1704170664.746149] [gra1298:273402:0]          mpool.c:42   UCX  WARN  object 0xbb98800 was not returned to mpool ucp_requests
[1704170664.746155] [gra1298:273402:0]          mpool.c:42   UCX  WARN  object 0xbb989c0 was not returned to mpool ucp_requests
[1704170664.746160] [gra1298:273402:0]          mpool.c:42   UCX  WARN  object 0xbb98b80 was not returned to mpool ucp_requests
[1704170664.746176] [gra1298:273402:0]          mpool.c:42   UCX  WARN  object 0xbb98d40 was not returned to mpool ucp_requests
[1704170664.746182] [gra1298:273402:0]          mpool.c:42   UCX  WARN  object 0xbb98f00 was not returned to mpool ucp_requests
[1704170664.747868] [gra1298:273399:0]          mpool.c:42   UCX  WARN  object 0xb02ee80 was not returned to mpool ucp_requests
[1704170664.747925] [gra1298:273399:0]          mpool.c:42   UCX  WARN  object 0xb02f040 was not returned to mpool ucp_requests
[1704170664.747967] [gra1298:273399:0]          mpool.c:42   UCX  WARN  object 0xb02f200 was not returned to mpool ucp_requests
[1704170664.748007] [gra1298:273399:0]          mpool.c:42   UCX  WARN  object 0xb02f3c0 was not returned to mpool ucp_requests
[1704170664.748046] [gra1298:273399:0]          mpool.c:42   UCX  WARN  object 0xb02f580 was not returned to mpool ucp_requests
[1704170664.748085] [gra1298:273399:0]          mpool.c:42   UCX  WARN  object 0xb02f740 was not returned to mpool ucp_requests
[1704170664.748125] [gra1298:273399:0]          mpool.c:42   UCX  WARN  object 0xb02f900 was not returned to mpool ucp_requests
[1704170664.748179] [gra1298:273399:0]          mpool.c:42   UCX  WARN  object 0xb02fac0 was not returned to mpool ucp_requests
[1704170664.748219] [gra1298:273399:0]          mpool.c:42   UCX  WARN  object 0xb02fc80 was not returned to mpool ucp_requests
[1704170664.748259] [gra1298:273399:0]          mpool.c:42   UCX  WARN  object 0xb02fe40 was not returned to mpool ucp_requests
[1704170664.748298] [gra1298:273399:0]          mpool.c:42   UCX  WARN  object 0xb030000 was not returned to mpool ucp_requests
[1704170664.748337] [gra1298:273399:0]          mpool.c:42   UCX  WARN  object 0xb0301c0 was not returned to mpool ucp_requests


           ************************************************************
           *        Program running with 8 parallel MPI-processes     *
           *              working on a common directory               *
           ************************************************************
-------------------------------------------------------------------------------
                                 ORCA SCF
-------------------------------------------------------------------------------

------------
SCF SETTINGS
------------
Hamiltonian:
 Density Functional     Method          .... DFT(GTOs)
 Exchange Functional    Exchange        .... WB97X-V
 Correlation Functional Correlation     .... WB97X-V
 Gradients option       PostSCFGGA      .... off
 Hybrid DFT is turned on
   Fraction HF Exchange ScalHFX         ....  0.167000
   Scaling of DF-GGA-X  ScalDFX         ....  0.000000
   Scaling of DF-GGA-C  ScalDFC         ....  1.000000
   Scaling of DF-LDA-C  ScalLDAC        ....  1.000000
   Perturbative correction              ....  0.000000
   Density functional embedding theory  .... OFF
 Long-range corrected/Screened/Range-Separated Hybrid DFT is turned on
   Amount of maximum screened exact exchange              ....  0.833000
   Range separation parameter mu (erf(mu*r12)/r12)        ....  0.300000
 RI-approximation to the Coulomb term is turned on
   Number of AuxJ basis functions       .... 1375
   RIJ-COSX (HFX calculated with COS-X)).... on


General Settings:
 Integral files         IntName         .... desprop_oMe-Fentanyl_exoNProt_93
 Hartree-Fock type      HFTyp           .... RHF
 Total Charge           Charge          ....    1
 Multiplicity           Mult            ....    1
 Number of Electrons    NEL             ....  160
 Basis Dimension        Dim             ....  844
 Nuclear Repulsion      ENuc            ....   1980.4450913044 Eh

Convergence Acceleration:
 DIIS                   CNVDIIS         .... on
   Start iteration      DIISMaxIt       ....    12
   Startup error        DIISStart       ....  0.200000
   # of expansion vecs  DIISMaxEq       ....     5
   Bias factor          DIISBfac        ....   1.050
   Max. coefficient     DIISMaxC        ....  10.000
 Trust-Rad. Augm. Hess. CNVTRAH         .... auto
   Auto Start mean grad. ratio tolernc. ....  1.125000
   Auto Start start iteration           ....    20
   Auto Start num. interpolation iter.  ....    10
   Max. Number of Micro iterations      ....    16
   Max. Number of Macro iterations      .... Maxiter - #DIIS iter
   Number of Davidson start vectors     ....     2
   Converg. threshold I  (grad. norm)   ....   1.000e-05
   Converg. threshold II (energy diff.) ....   1.000e-08
   Grad. Scal. Fac. for Micro threshold ....   0.100
   Minimum threshold for Micro iter.    ....   0.010
   NR start threshold (gradient norm)   ....   0.001
   Initial trust radius                 ....   0.400
   Minimum AH scaling param. (alpha)    ....   1.000
   Maximum AH scaling param. (alpha)    .... 1000.000
   Orbital update algorithm             .... Taylor
   White noise on init. David. guess    .... on
   Maximum white noise                  ....   0.010
   Quad. conv. algorithm                .... NR
 SOSCF                  CNVSOSCF        .... on
   Start iteration      SOSCFMaxIt      ....   150
   Startup grad/error   SOSCFStart      ....  0.003300
 Level Shifting         CNVShift        .... on
   Level shift para.    LevelShift      ....    0.2500
   Turn off err/grad.   ShiftErr        ....    0.0010
 Zerner damping         CNVZerner       .... off
 Static damping         CNVDamp         .... on
   Fraction old density DampFac         ....    0.7000
   Max. Damping (<1)    DampMax         ....    0.9800
   Min. Damping (>=0)   DampMin         ....    0.0000
   Turn off err/grad.   DampErr         ....    0.1000
 Fernandez-Rico         CNVRico         .... off

SCF Procedure:
 Maximum # iterations   MaxIter         ....   125
 SCF integral mode      SCFMode         .... Direct
   Integral package                     .... SHARK and LIBINT hybrid scheme
 Reset frequency        DirectResetFreq ....    20
 Integral Threshold     Thresh          ....  2.500e-11 Eh
 Primitive CutOff       TCut            ....  2.500e-12 Eh

Convergence Tolerance:
 Convergence Check Mode ConvCheckMode   .... Total+1el-Energy
 Convergence forced     ConvForced      .... 0
 Energy Change          TolE            ....  1.000e-08 Eh
 1-El. energy change                    ....  1.000e-05 Eh
 Orbital Gradient       TolG            ....  1.000e-05
 Orbital Rotation angle TolX            ....  1.000e-05
 DIIS Error             TolErr          ....  5.000e-07


Diagonalization of the overlap matrix:
Smallest eigenvalue                        ... 4.641e-06
Time for diagonalization                   ...    0.143 sec
Threshold for overlap eigenvalues          ... 1.000e-08
Number of eigenvalues below threshold      ... 0
Time for construction of square roots      ...    0.078 sec
Total time needed                          ...    0.225 sec

Time for model grid setup =    0.419 sec

------------------------------
INITIAL GUESS: MODEL POTENTIAL
------------------------------
Loading Hartree-Fock densities                     ... done
Calculating cut-offs                               ... done
Initializing the effective Hamiltonian             ... done
Setting up the integral package (SHARK)            ... done
Starting the Coulomb interaction                   ... done (   1.1 sec)
Reading the grid                                   ... done
Mapping shells                                     ... done
Starting the XC term evaluation                    ... done (   0.6 sec)
  promolecular density results
     # of electrons  =    160.990221226
     EX              =    -82.466567058
     EC              =     -6.598899597
     EX+EC           =    -89.065466655
Transforming the Hamiltonian                       ... done (   0.1 sec)
Diagonalizing the Hamiltonian                      ... done (   0.2 sec)
Back transforming the eigenvectors                 ... done (   0.0 sec)
Now organizing SCF variables                       ... done
                      ------------------
                      INITIAL GUESS DONE (   2.4 sec)
                      ------------------
-------------------
DFT GRID GENERATION
-------------------

General Integration Accuracy     IntAcc      ... 4.959
Radial Grid Type                 RadialGrid  ... OptM3 with GC (2021)
Angular Grid (max. ang.)         AngularGrid ... 6 (Lebedev-590)
Angular grid pruning method      GridPruning ... 4 (adaptive)
Weight generation scheme         WeightScheme... Becke
Basis function cutoff            BFCut       ... 1.0000e-11
Integration weight cutoff        WCut        ... 1.0000e-14
Angular grids for H and He will be reduced by one unit
Partially contracted basis set               ... off
Rotationally invariant grid construction     ... off

Total number of grid points                  ...   532135
Total number of batches                      ...     8341
Average number of points per batch           ...       63
Average number of grid points per atom       ...    10860
Time for grid setup =    6.689 sec

--------------------
COSX GRID GENERATION
--------------------

GRIDX 1
-------
General Integration Accuracy     IntAcc      ... 4.020
Radial Grid Type                 RadialGrid  ... OptM3 with GC (2021)
Angular Grid (max. ang.)         AngularGrid ... 2 (Lebedev-110)
Angular grid pruning method      GridPruning ... 4 (adaptive)
Weight generation scheme         WeightScheme... Becke
Basis function cutoff            BFCut       ... 1.0000e-11
Integration weight cutoff        WCut        ... 1.0000e-14
Angular grids for H and He will be reduced by one unit
Partially contracted basis set               ... on
Rotationally invariant grid construction     ... off

Total number of grid points                  ...    57093
Total number of batches                      ...      918
Average number of points per batch           ...       62
Average number of grid points per atom       ...     1165
UseSFitting                                  ... on

GRIDX 2
-------
General Integration Accuracy     IntAcc      ... 4.338
Radial Grid Type                 RadialGrid  ... OptM3 with GC (2021)
Angular Grid (max. ang.)         AngularGrid ... 3 (Lebedev-194)
Angular grid pruning method      GridPruning ... 4 (adaptive)
Weight generation scheme         WeightScheme... Becke
Basis function cutoff            BFCut       ... 1.0000e-11
Integration weight cutoff        WCut        ... 1.0000e-14
Angular grids for H and He will be reduced by one unit
Partially contracted basis set               ... on
Rotationally invariant grid construction     ... off

Total number of grid points                  ...   123794
Total number of batches                      ...     1960
Average number of points per batch           ...       63
Average number of grid points per atom       ...     2526
UseSFitting                                  ... on

GRIDX 3
-------
General Integration Accuracy     IntAcc      ... 4.871
Radial Grid Type                 RadialGrid  ... OptM3 with GC (2021)
Angular Grid (max. ang.)         AngularGrid ... 4 (Lebedev-302)
Angular grid pruning method      GridPruning ... 4 (adaptive)
Weight generation scheme         WeightScheme... Becke
Basis function cutoff            BFCut       ... 1.0000e-11
Integration weight cutoff        WCut        ... 1.0000e-14
Angular grids for H and He will be reduced by one unit
Partially contracted basis set               ... on
Rotationally invariant grid construction     ... off

Total number of grid points                  ...   236148
Total number of batches                      ...     3715
Average number of points per batch           ...       63
Average number of grid points per atom       ...     4819
UseSFitting                                  ... on

Time for X-Grid setup             =    4.857 sec

--------------
SCF ITERATIONS
--------------
ITER       Energy         Delta-E        Max-DP      RMS-DP      [F,P]     Damp
               ***  Starting incremental Fock matrix formation  ***
  0   -888.1272453545   0.000000000000 0.06561047  0.00069801  0.3108367 0.7000
  1   -888.1825232068  -0.055277852308 0.05596295  0.00061619  0.2099132 0.7000
                               ***Turning on DIIS***
  2   -888.2154490013  -0.032925794490 0.04557246  0.00047694  0.1429230 0.7000
  3   -888.2371087916  -0.021659790338 0.13638446  0.00127612  0.0980012 0.0000
  4   -888.2886442212  -0.051535429586 0.01488550  0.00016475  0.0054927 0.0000
  5   -888.2890376327  -0.000393411502 0.00700983  0.00007054  0.0035725 0.0000
                      *** Initiating the SOSCF procedure ***
                           *** Shutting down DIIS ***
                      *** Re-Reading the Fockian *** 
                      *** Removing any level shift *** 
ITER      Energy       Delta-E        Grad      Rot      Max-DP    RMS-DP
  6   -888.28913771  -0.0001000775  0.000549  0.000549  0.005728  0.000062
               *** Restarting incremental Fock matrix formation ***
  7   -888.28916700  -0.0000292943  0.000190  0.000465  0.000914  0.000012
  8   -888.28916793  -0.0000009228  0.000083  0.000231  0.000695  0.000007
  9   -888.28916850  -0.0000005771  0.000019  0.000073  0.000456  0.000006
 10   -888.28916852  -0.0000000151  0.000010  0.000029  0.000313  0.000003
 11   -888.28916855  -0.0000000308  0.000004  0.000010  0.000537  0.000005
                  ***Gradient check signals convergence***
              ***Rediagonalizing the Fockian in SOSCF/NRSCF***

               *****************************************************
               *                     SUCCESS                       *
               *           SCF CONVERGED AFTER  12 CYCLES          *
               *****************************************************

Old exchange energy                            =    -41.952785778 Eh
New exchange energy                            =    -41.952784130 Eh
Exchange energy change after final integration =      0.000001647 Eh
Total energy after final integration           =   -888.289166892 Eh
Final COS-X integration done in                =   155.074 sec

----------------
TOTAL SCF ENERGY
----------------

Total Energy       :         -888.28916689 Eh          -24171.57709 eV

Components:
Nuclear Repulsion  :         1980.44509130 Eh           53890.65068 eV
Electronic Energy  :        -2868.73425820 Eh          -78062.22777 eV
One Electron Energy:        -5114.20957753 Eh         -139164.71760 eV
Two Electron Energy:         2245.47531933 Eh           61102.48983 eV
Max COSX asymmetry :            0.00000038 Eh               0.00001 eV

Virial components:
Potential Energy   :        -1772.91464871 Eh          -48243.46024 eV
Kinetic Energy     :          884.62548182 Eh           24071.88315 eV
Virial Ratio       :            2.00414151


DFT components:
N(Alpha)           :       80.000015439093 electrons
N(Beta)            :       80.000015439093 electrons
N(Total)           :      160.000030878186 electrons
E(X)               :      -84.499747966562 Eh       
E(C)               :       -6.597436322429 Eh       
E(XC)              :      -91.097184288991 Eh       
DFET-embed. en.    :        0.000000000000 Eh       

---------------
SCF CONVERGENCE
---------------

  Last Energy change         ...    1.1406e-08  Tolerance :   1.0000e-08
  Last MAX-Density change    ...    3.4417e-15  Tolerance :   1.0000e-07
  Last RMS-Density change    ...    1.2451e-17  Tolerance :   5.0000e-09
  Last Orbital Gradient      ...    1.5510e-06  Tolerance :   1.0000e-05
  Last Orbital Rotation      ...    4.2488e-06  Tolerance :   1.0000e-05

[...]
 48:    860.70   0.000072    0.36  0.000026  (-0.004078 -0.003052  0.000126)
 49:    880.52   0.003860   19.51  0.001368  (-0.034147 -0.000026 -0.014214)
 50:    897.52   0.000269    1.36  0.000094  ( 0.005829  0.002195  0.007409)
 51:    902.40   0.000105    0.53  0.000036  (-0.002793  0.004361 -0.003059)
 52:    919.96   0.000094    0.48  0.000032  ( 0.002354 -0.004867  0.001647)
 53:    942.18   0.002291   11.58  0.000759  ( 0.023762 -0.009215  0.010451)
 54:    950.46   0.001118    5.65  0.000367  (-0.014114 -0.005840 -0.011567)
 55:    976.66   0.000414    2.09  0.000132  (-0.011157 -0.002717  0.000627)
 56:    987.32   0.000624    3.16  0.000197  (-0.003272  0.013433 -0.002490)
 57:    993.14   0.000128    0.64  0.000040  ( 0.006298 -0.000377 -0.000519)
 58:   1015.46   0.004978   25.16  0.001530  ( 0.029313 -0.025617  0.003784)
 59:   1018.00   0.000221    1.12  0.000068  ( 0.007520 -0.000282 -0.003335)
 60:   1023.54   0.000929    4.69  0.000283  ( 0.001262 -0.016727  0.001360)
 61:   1026.83   0.000028    0.14  0.000009  (-0.001374  0.000297 -0.002556)
 62:   1031.42   0.000139    0.70  0.000042  ( 0.001642  0.003764 -0.005014)
 63:   1037.72   0.000004    0.02  0.000001  ( 0.000354 -0.000781 -0.000629)
 64:   1044.01   0.000024    0.12  0.000007  ( 0.002441  0.000774 -0.000870)
 65:   1046.37   0.001509    7.63  0.000450  ( 0.017477  0.004462 -0.011167)
 66:   1066.32   0.003689   18.64  0.001079  ( 0.030425 -0.002321  0.012182)
 67:   1068.76   0.000132    0.67  0.000039  ( 0.005484  0.002851  0.000609)
 68:   1070.10   0.000760    3.84  0.000222  ( 0.008896 -0.004464  0.011072)
 69:   1092.81   0.000435    2.20  0.000124  (-0.005768 -0.008096 -0.005027)
 70:   1114.93   0.000366    1.85  0.000102  ( 0.001323 -0.009930  0.001407)
 71:   1128.93   0.000389    1.97  0.000108  ( 0.004939  0.001793  0.008944)
 72:   1133.95   0.006195   31.31  0.001705  ( 0.037631  0.007356  0.015316)
 73:   1150.06   0.005584   28.22  0.001515  (-0.030880  0.006264  0.022852)
 74:   1170.56   0.000715    3.61  0.000191  (-0.000997  0.005970 -0.012411)
 75:   1184.32   0.000145    0.73  0.000038  (-0.002153 -0.000043 -0.005801)
 76:   1190.87   0.000115    0.58  0.000030  ( 0.004825  0.002477 -0.000890)
 77:   1201.76   0.002340   11.82  0.000608  (-0.022004 -0.009387  0.005938)
 78:   1207.78   0.006400   32.34  0.001654  ( 0.003269  0.040058  0.006190)
 79:   1213.87   0.000022    0.11  0.000006  ( 0.002176 -0.000883  0.000483)
 80:   1217.83   0.000784    3.96  0.000201  (-0.002273 -0.013982 -0.000471)
 81:   1233.24   0.001795    9.07  0.000454  (-0.020947 -0.003906 -0.000382)
 82:   1243.15   0.000313    1.58  0.000079  (-0.002868 -0.005813 -0.006052)
 83:   1263.55   0.001257    6.35  0.000310  (-0.016082  0.003758 -0.006129)
 84:   1265.91   0.001494    7.55  0.000368  ( 0.008297 -0.009390 -0.014537)
 85:   1276.33   0.000921    4.66  0.000225  (-0.009579  0.006951 -0.009228)
 86:   1290.68   0.002864   14.48  0.000693  (-0.020049  0.016295  0.005005)
 87:   1302.45   0.000354    1.79  0.000085  ( 0.002295 -0.007272  0.005166)
 88:   1315.51   0.002802   14.16  0.000665  (-0.023157 -0.000368 -0.011329)
 89:   1324.99   0.000777    3.92  0.000183  ( 0.002333 -0.002403  0.013103)
 90:   1329.01   0.001049    5.30  0.000246  (-0.014373  0.003025 -0.005522)
 91:   1343.25   0.001007    5.09  0.000234  (-0.011880  0.006187  0.007390)
 92:   1355.97   0.001842    9.31  0.000424  (-0.016905  0.011727 -0.000742)
 93:   1366.51   0.000398    2.01  0.000091  (-0.003087 -0.004926  0.007563)
 94:   1378.01   0.001135    5.73  0.000257  (-0.002167  0.008671 -0.013306)
 95:   1382.90   0.002735   13.82  0.000617  ( 0.014639 -0.019443 -0.004989)
 96:   1395.93   0.001844    9.32  0.000412  ( 0.008244 -0.018497 -0.001479)
 97:   1400.44   0.000918    4.64  0.000205  ( 0.003520 -0.012889 -0.005102)
 98:   1411.82   0.008543   43.17  0.001888  (-0.043452  0.000117  0.000367)
 99:   1421.65   0.005596   28.28  0.001228  ( 0.027866 -0.012560  0.017151)
100:   1436.54   0.002049   10.35  0.000445  (-0.004838  0.018212  0.009483)
101:   1437.92   0.002540   12.83  0.000551  (-0.008588  0.017257 -0.013402)
102:   1446.19   0.001099    5.55  0.000237  (-0.013953  0.003765 -0.005315)
103:   1486.13   0.001542    7.79  0.000324  (-0.013872  0.011297 -0.001926)
104:   1495.94   0.002097   10.60  0.000437  ( 0.001337 -0.007071  0.019638)
105:   1503.54   0.001061    5.36  0.000220  (-0.001935 -0.012712 -0.007404)
106:   1506.34   0.000880    4.45  0.000182  (-0.003403 -0.011345 -0.006476)
107:   1508.86   0.001211    6.12  0.000250  ( 0.006922 -0.014054  0.002241)
108:   1509.49   0.003069   15.51  0.000634  (-0.006999 -0.012426  0.020761)
109:   1518.41   0.000418    2.11  0.000086  ( 0.007334  0.005358  0.001855)
110:   1519.68   0.001318    6.66  0.000271  (-0.014058  0.002096  0.008282)
111:   1523.38   0.005760   29.11  0.001180  ( 0.020654 -0.010113 -0.025515)
112:   1542.86   0.004255   21.50  0.000861  ( 0.023564 -0.001110  0.017436)
113:   1553.67   0.002414   12.20  0.000485  ( 0.018639  0.000071  0.011724)
114:   1564.21   0.006723   33.97  0.001341  (-0.034084 -0.012024 -0.005908)
115:   1666.31   0.000388    1.96  0.000073  ( 0.003701  0.002282 -0.007334)
116:   1671.66   0.022261  112.50  0.004156  ( 0.018219  0.054507 -0.029202)
117:   1678.22   0.002599   13.14  0.000483  ( 0.013602  0.014629 -0.009184)
118:   1689.17   0.001352    6.83  0.000250  ( 0.010732 -0.006253  0.009773)
119:   1707.72   0.001359    6.87  0.000248  ( 0.011507  0.008697 -0.006349)
120:   3013.16   0.007605   38.43  0.000788  ( 0.023232 -0.015318  0.003647)
121:   3014.60   0.001982   10.02  0.000205  (-0.007684 -0.002834  0.011752)
122:   3018.76   0.021622  109.27  0.002235  ( 0.040710  0.001138  0.024012)
123:   3078.16   0.001528    7.72  0.000155  ( 0.010724  0.002235  0.005911)
124:   3079.16   0.002314   11.69  0.000235  (-0.003057 -0.002139 -0.014852)
125:   3091.71   0.002083   10.53  0.000210  (-0.011879 -0.008095 -0.001906)
126:   3096.99   0.002809   14.20  0.000283  (-0.015176  0.000567  0.007239)
127:   3103.99   0.001218    6.16  0.000122  ( 0.002932  0.008523 -0.006423)
128:   3132.60   0.000182    0.92  0.000018  (-0.001006 -0.001550 -0.003842)
129:   3133.32   0.001538    7.77  0.000153  ( 0.009655  0.001329  0.007631)
130:   3134.63   0.002979   15.05  0.000297  ( 0.010613 -0.009881 -0.009289)
131:   3140.47   0.003710   18.75  0.000369  ( 0.012486  0.014585 -0.000023)
132:   3144.59   0.001165    5.89  0.000116  (-0.001713  0.010460 -0.001807)
133:   3149.12   0.002911   14.71  0.000288  (-0.011535  0.008171  0.009413)
134:   3173.87   0.003730   18.85  0.000367  ( 0.017282  0.004927 -0.006617)
135:   3178.80   0.002294   11.59  0.000225  (-0.003471 -0.010427  0.010218)
136:   3188.79   0.000546    2.76  0.000053  ( 0.003465 -0.000038  0.006438)
137:   3191.08   0.000861    4.35  0.000084  ( 0.008794 -0.000615 -0.002548)
138:   3192.28   0.000443    2.24  0.000043  ( 0.004523 -0.002009 -0.004342)
139:   3200.00   0.050075  253.06  0.004883  ( 0.058718  0.037047  0.007941)
140:   3205.07   0.001240    6.27  0.000121  (-0.007494 -0.006484 -0.004750)
141:   3205.66   0.000202    1.02  0.000020  (-0.003395  0.002492  0.001402)
142:   3212.83   0.001256    6.35  0.000122  (-0.005973  0.002198  0.009029)
143:   3222.74   0.000368    1.86  0.000036  (-0.004294  0.000784  0.004074)
144:   3226.44   0.000561    2.84  0.000054  (-0.007248 -0.000552 -0.001210)
145:   3236.49   0.000082    0.41  0.000008  (-0.002609 -0.000876 -0.000549)
146:   3446.88   0.014330   72.42  0.001297  ( 0.004138  0.025659 -0.024937)

* The epsilon (eps) is given for a Dirac delta lineshape.
** The dipole moment derivative (T) already includes vibrational overlap.

The first frequency considered to be a vibration is 6
The total number of vibrations considered is 141


--------------------------
THERMOCHEMISTRY AT 298.15K
--------------------------

Temperature         ... 298.15 K
Pressure            ... 1.00 atm
Total Mass          ... 295.45 AMU

Throughout the following assumptions are being made:
  (1) The electronic state is orbitally nondegenerate
  (2) There are no thermally accessible electronically excited states
  (3) Hindered rotations indicated by low frequency modes are not
      treated as such but are treated as vibrations and this may
      cause some error
  (4) All equations used are the standard statistical mechanics
      equations for an ideal gas
  (5) All vibrations are strictly harmonic

freq.      35.89  E(vib)   ...       0.54 
freq.      45.90  E(vib)   ...       0.53 
freq.      53.31  E(vib)   ...       0.52 
freq.      78.97  E(vib)   ...       0.49 
freq.      87.48  E(vib)   ...       0.48 
freq.     102.82  E(vib)   ...       0.46 
freq.     121.96  E(vib)   ...       0.44 
freq.     133.71  E(vib)   ...       0.42 
freq.     156.51  E(vib)   ...       0.40 
freq.     178.72  E(vib)   ...       0.37 
freq.     189.14  E(vib)   ...       0.36 
freq.     211.47  E(vib)   ...       0.34 
freq.     242.57  E(vib)   ...       0.31 
freq.     258.69  E(vib)   ...       0.30 
freq.     279.68  E(vib)   ...       0.28 
freq.     302.92  E(vib)   ...       0.26 
freq.     343.24  E(vib)   ...       0.23 
freq.     363.80  E(vib)   ...       0.22 
freq.     392.69  E(vib)   ...       0.20 
freq.     405.36  E(vib)   ...       0.19 
freq.     427.81  E(vib)   ...       0.18 
freq.     436.91  E(vib)   ...       0.17 
freq.     444.62  E(vib)   ...       0.17 
freq.     472.71  E(vib)   ...       0.15 
freq.     499.35  E(vib)   ...       0.14 
freq.     511.23  E(vib)   ...       0.14 
freq.     518.42  E(vib)   ...       0.13 
freq.     533.00  E(vib)   ...       0.13 
freq.     562.89  E(vib)   ...       0.11 
freq.     617.10  E(vib)   ...       0.09 
freq.     625.66  E(vib)   ...       0.09 
freq.     638.27  E(vib)   ...       0.09 
freq.     726.02  E(vib)   ...       0.06 
freq.     734.93  E(vib)   ...       0.06 
freq.     736.83  E(vib)   ...       0.06 
freq.     775.73  E(vib)   ...       0.05 
freq.     786.68  E(vib)   ...       0.05 
freq.     791.54  E(vib)   ...       0.05 
freq.     793.83  E(vib)   ...       0.05 
freq.     809.32  E(vib)   ...       0.05 
freq.     829.42  E(vib)   ...       0.04 
freq.     845.63  E(vib)   ...       0.04 
freq.     860.70  E(vib)   ...       0.04 
freq.     880.52  E(vib)   ...       0.04 
freq.     897.52  E(vib)   ...       0.03 
freq.     902.40  E(vib)   ...       0.03 
freq.     919.96  E(vib)   ...       0.03 
freq.     942.18  E(vib)   ...       0.03 
freq.     950.46  E(vib)   ...       0.03 
freq.     976.66  E(vib)   ...       0.03 
freq.     987.32  E(vib)   ...       0.02 
freq.     993.14  E(vib)   ...       0.02 
freq.    1015.46  E(vib)   ...       0.02 
freq.    1018.00  E(vib)   ...       0.02 
freq.    1023.54  E(vib)   ...       0.02 
freq.    1026.83  E(vib)   ...       0.02 
freq.    1031.42  E(vib)   ...       0.02 
freq.    1037.72  E(vib)   ...       0.02 
freq.    1044.01  E(vib)   ...       0.02 
freq.    1046.37  E(vib)   ...       0.02 
freq.    1066.32  E(vib)   ...       0.02 
freq.    1068.76  E(vib)   ...       0.02 
freq.    1070.10  E(vib)   ...       0.02 
freq.    1092.81  E(vib)   ...       0.02 
freq.    1114.93  E(vib)   ...       0.01 
freq.    1128.93  E(vib)   ...       0.01 
freq.    1133.95  E(vib)   ...       0.01 
freq.    1150.06  E(vib)   ...       0.01 
freq.    1170.56  E(vib)   ...       0.01 
freq.    1184.32  E(vib)   ...       0.01 
freq.    1190.87  E(vib)   ...       0.01 
freq.    1201.76  E(vib)   ...       0.01 
freq.    1207.78  E(vib)   ...       0.01 
freq.    1213.87  E(vib)   ...       0.01 
freq.    1217.83  E(vib)   ...       0.01 
freq.    1233.24  E(vib)   ...       0.01 
freq.    1243.15  E(vib)   ...       0.01 
freq.    1263.55  E(vib)   ...       0.01 
freq.    1265.91  E(vib)   ...       0.01 
freq.    1276.33  E(vib)   ...       0.01 
freq.    1290.68  E(vib)   ...       0.01 
freq.    1302.45  E(vib)   ...       0.01 
freq.    1315.51  E(vib)   ...       0.01 
freq.    1324.99  E(vib)   ...       0.01 
freq.    1329.01  E(vib)   ...       0.01 
freq.    1343.25  E(vib)   ...       0.01 
freq.    1355.97  E(vib)   ...       0.01 
freq.    1366.51  E(vib)   ...       0.01 
freq.    1378.01  E(vib)   ...       0.01 
freq.    1382.90  E(vib)   ...       0.01 
freq.    1395.93  E(vib)   ...       0.00 
freq.    1400.44  E(vib)   ...       0.00 
freq.    1411.82  E(vib)   ...       0.00 
freq.    1421.65  E(vib)   ...       0.00 
freq.    1436.54  E(vib)   ...       0.00 
freq.    1437.92  E(vib)   ...       0.00 
freq.    1446.19  E(vib)   ...       0.00 
freq.    1486.13  E(vib)   ...       0.00 
freq.    1495.94  E(vib)   ...       0.00 
freq.    1503.54  E(vib)   ...       0.00 
freq.    1506.34  E(vib)   ...       0.00 
freq.    1508.86  E(vib)   ...       0.00 
freq.    1509.49  E(vib)   ...       0.00 
freq.    1518.41  E(vib)   ...       0.00 
freq.    1519.68  E(vib)   ...       0.00 
freq.    1523.38  E(vib)   ...       0.00 
freq.    1542.86  E(vib)   ...       0.00 
freq.    1553.67  E(vib)   ...       0.00 
freq.    1564.21  E(vib)   ...       0.00 
freq.    1666.31  E(vib)   ...       0.00 
freq.    1671.66  E(vib)   ...       0.00 
freq.    1678.22  E(vib)   ...       0.00 
freq.    1689.17  E(vib)   ...       0.00 
freq.    1707.72  E(vib)   ...       0.00 
freq.    3013.16  E(vib)   ...       0.00 
freq.    3014.60  E(vib)   ...       0.00 
freq.    3018.76  E(vib)   ...       0.00 
freq.    3078.16  E(vib)   ...       0.00 
freq.    3079.16  E(vib)   ...       0.00 
freq.    3091.71  E(vib)   ...       0.00 
freq.    3096.99  E(vib)   ...       0.00 
freq.    3103.99  E(vib)   ...       0.00 
freq.    3132.60  E(vib)   ...       0.00 
freq.    3133.32  E(vib)   ...       0.00 
freq.    3134.63  E(vib)   ...       0.00 
freq.    3140.47  E(vib)   ...       0.00 
freq.    3144.59  E(vib)   ...       0.00 
freq.    3149.12  E(vib)   ...       0.00 
freq.    3173.87  E(vib)   ...       0.00 
freq.    3178.80  E(vib)   ...       0.00 
freq.    3188.79  E(vib)   ...       0.00 
freq.    3191.08  E(vib)   ...       0.00 
freq.    3192.28  E(vib)   ...       0.00 
freq.    3200.00  E(vib)   ...       0.00 
freq.    3205.07  E(vib)   ...       0.00 
freq.    3205.66  E(vib)   ...       0.00 
freq.    3212.83  E(vib)   ...       0.00 
freq.    3222.74  E(vib)   ...       0.00 
freq.    3226.44  E(vib)   ...       0.00 
freq.    3236.49  E(vib)   ...       0.00 
freq.    3446.88  E(vib)   ...       0.00 

------------
INNER ENERGY
------------

The inner energy is: U= E(el) + E(ZPE) + E(vib) + E(rot) + E(trans)
    E(el)   - is the total energy from the electronic structure calculation
              = E(kin-el) + E(nuc-el) + E(el-el) + E(nuc-nuc)
    E(ZPE)  - the the zero temperature vibrational energy from the frequency calculation
    E(vib)  - the the finite temperature correction to E(ZPE) due to population
              of excited vibrational states
    E(rot)  - is the rotational thermal energy
    E(trans)- is the translational thermal energy

Summary of contributions to the inner energy U:
Electronic energy                ...   -888.46707887 Eh
Zero point energy                ...      0.44276073 Eh     277.84 kcal/mol
Thermal vibrational correction   ...      0.01641132 Eh      10.30 kcal/mol
Thermal rotational correction    ...      0.00141627 Eh       0.89 kcal/mol
Thermal translational correction ...      0.00141627 Eh       0.89 kcal/mol
-----------------------------------------------------------------------
Total thermal energy                   -888.00507427 Eh


Summary of corrections to the electronic energy:
(perhaps to be used in another calculation)
Total thermal correction                  0.01924387 Eh      12.08 kcal/mol
Non-thermal (ZPE) correction              0.44276073 Eh     277.84 kcal/mol
-----------------------------------------------------------------------
Total correction                          0.46200459 Eh     289.91 kcal/mol


--------
ENTHALPY
--------

The enthalpy is H = U + kB*T
                kB is Boltzmann's constant
Total free energy                 ...   -888.00507427 Eh 
Thermal Enthalpy correction       ...      0.00094421 Eh       0.59 kcal/mol
-----------------------------------------------------------------------
Total Enthalpy                    ...   -888.00413006 Eh


Note: Only C1 symmetry has been detected, increase convergence thresholds 
      if your molecule has a higher symmetry. Symmetry factor of 1.0 is   
      used for the rotational entropy correction. 
 

Note: Rotational entropy computed according to Herzberg 
Infrared and Raman Spectra, Chapter V,1, Van Nostrand Reinhold, 1945 
Point Group:  C1, Symmetry Number:   1  
Rotational constants in cm-1:     0.014088     0.008786     0.007330 

Vibrational entropy computed according to the QRRHO of S. Grimme
Chem.Eur.J. 2012 18 9955


-------
ENTROPY
-------

The entropy contributions are T*S = T*(S(el)+S(vib)+S(rot)+S(trans))
     S(el)   - electronic entropy
     S(vib)  - vibrational entropy
     S(rot)  - rotational entropy
     S(trans)- translational entropy
The entropies will be listed as multiplied by the temperature to get
units of energy

Electronic entropy                ...      0.00000000 Eh      0.00 kcal/mol
Vibrational entropy               ...      0.02829000 Eh     17.75 kcal/mol
Rotational entropy                ...      0.01607893 Eh     10.09 kcal/mol
Translational entropy             ...      0.02040553 Eh     12.80 kcal/mol
-----------------------------------------------------------------------
Final entropy term                ...      0.06477446 Eh     40.65 kcal/mol

In case the symmetry of your molecule has not been determined correctly
or in case you have a reason to use a different symmetry number we print 
out the resulting rotational entropy values for sn=1,12 :
 --------------------------------------------------------
|  sn= 1 | S(rot)=       0.01607893 Eh     10.09 kcal/mol|
|  sn= 2 | S(rot)=       0.01542447 Eh      9.68 kcal/mol|
|  sn= 3 | S(rot)=       0.01504164 Eh      9.44 kcal/mol|
|  sn= 4 | S(rot)=       0.01477002 Eh      9.27 kcal/mol|
|  sn= 5 | S(rot)=       0.01455933 Eh      9.14 kcal/mol|
|  sn= 6 | S(rot)=       0.01438718 Eh      9.03 kcal/mol|
|  sn= 7 | S(rot)=       0.01424164 Eh      8.94 kcal/mol|
|  sn= 8 | S(rot)=       0.01411556 Eh      8.86 kcal/mol|
|  sn= 9 | S(rot)=       0.01400435 Eh      8.79 kcal/mol|
|  sn=10 | S(rot)=       0.01390487 Eh      8.73 kcal/mol|
|  sn=11 | S(rot)=       0.01381488 Eh      8.67 kcal/mol|
|  sn=12 | S(rot)=       0.01373273 Eh      8.62 kcal/mol|
 --------------------------------------------------------


-------------------
GIBBS FREE ENERGY
-------------------

The Gibbs free energy is G = H - T*S

Total enthalpy                    ...   -888.00413006 Eh 
Total entropy correction          ...     -0.06477446 Eh    -40.65 kcal/mol
-----------------------------------------------------------------------
Final Gibbs free energy         ...   -888.06890452 Eh

For completeness - the Gibbs free energy minus the electronic energy
G-E(el)                           ...      0.39817434 Eh    249.86 kcal/mol


Timings for individual modules:

Sum of individual times         ...    37000.277 sec (= 616.671 min)
GTO integral calculation        ...       63.221 sec (=   1.054 min)   0.2 %
SCF iterations                  ...    21570.720 sec (= 359.512 min)  58.3 %
SCF Gradient evaluation         ...     5893.770 sec (=  98.230 min)  15.9 %
Geometry relaxation             ...        7.564 sec (=   0.126 min)   0.0 %
Analytical frequency calculation...     7832.255 sec (= 130.538 min)  21.2 %
CHELPG charge generation        ...     1632.746 sec (=  27.212 min)   4.4 %
                             ****ORCA TERMINATED NORMALLY****
TOTAL RUN TIME: 0 days 10 hours 17 minutes 11 seconds 561 msec
