
Lmod is automatically replacing "intel/2020.1.217" with "gcc/10.3.0".


The following have been reloaded with a version change:
  1) gcccore/.9.3.0 => gcccore/.10.3.0        3) openmpi/4.0.3 => openmpi/4.1.1
  2) libfabric/1.10.1 => libfabric/1.12.1     4) ucx/1.8.0 => ucx/1.9.0

To execute ORCA, run: 
   ${EBROOTORCA}/orca orca.inp > orca.out
cp: cannot stat '/project/6006388/cieritan/Fentanyl_analogs/Despropionyl_ortho-Methylfentanyl/exoN-Prot/DFT/*.hess': No such file or directory
cp: cannot stat '/project/6006388/cieritan/Fentanyl_analogs/Despropionyl_ortho-Methylfentanyl/exoN-Prot/DFT/*.gbw': No such file or directory

                                 *****************
                                 * O   R   C   A *
                                 *****************

                                            #,                                       
                                            ###                                      
                                            ####                                     
                                            #####                                    
                                            ######                                   
                                           ########,                                 
                                     ,,################,,,,,                         
                               ,,#################################,,                 
                          ,,##########################################,,             
                       ,#########################################, ''#####,          
                    ,#############################################,,   '####,        
                  ,##################################################,,,,####,       
                ,###########''''           ''''###############################       
              ,#####''   ,,,,##########,,,,          '''####'''          '####       
            ,##' ,,,,###########################,,,                        '##       
           ' ,,###''''                  '''############,,,                           
         ,,##''                                '''############,,,,        ,,,,,,###''
      ,#''                                            '''#######################'''  
     '                                                          ''''####''''         
             ,#######,   #######,   ,#######,      ##                                
            ,#'     '#,  ##    ##  ,#'     '#,    #''#        ######   ,####,        
            ##       ##  ##   ,#'  ##            #'  '#       #        #'  '#        
            ##       ##  #######   ##           ,######,      #####,   #    #        
            '#,     ,#'  ##    ##  '#,     ,#' ,#      #,         ##   #,  ,#        
             '#######'   ##     ##  '#######'  #'      '#     #####' # '####'        



                  #######################################################
                  #                        -***-                        #
                  #          Department of theory and spectroscopy      #
                  #    Directorship and core code : Frank Neese         #
                  #        Max Planck Institute fuer Kohlenforschung    #
                  #                Kaiser Wilhelm Platz 1               #
                  #                 D-45470 Muelheim/Ruhr               #
                  #                      Germany                        #
                  #                                                     #
                  #                  All rights reserved                #
                  #                        -***-                        #
                  #######################################################


                         Program Version 5.0.4 -  RELEASE  -


 With contributions from (in alphabetic order):
   Daniel Aravena         : Magnetic Suceptibility
   Michael Atanasov       : Ab Initio Ligand Field Theory (pilot matlab implementation)
   Alexander A. Auer      : GIAO ZORA, VPT2 properties, NMR spectrum
   Ute Becker             : Parallelization
   Giovanni Bistoni       : ED, misc. LED, open-shell LED, HFLD
   Martin Brehm           : Molecular dynamics
   Dmytro Bykov           : SCF Hessian
   Vijay G. Chilkuri      : MRCI spin determinant printing, contributions to CSF-ICE
   Dipayan Datta          : RHF DLPNO-CCSD density
   Achintya Kumar Dutta   : EOM-CC, STEOM-CC
   Dmitry Ganyushin       : Spin-Orbit,Spin-Spin,Magnetic field MRCI
   Miquel Garcia          : C-PCM and meta-GGA Hessian, CC/C-PCM, Gaussian charge scheme
   Yang Guo               : DLPNO-NEVPT2, F12-NEVPT2, CIM, IAO-localization
   Andreas Hansen         : Spin unrestricted coupled pair/coupled cluster methods
   Benjamin Helmich-Paris : MC-RPA, TRAH-SCF, COSX integrals
   Lee Huntington         : MR-EOM, pCC
   Robert Izsak           : Overlap fitted RIJCOSX, COSX-SCS-MP3, EOM
   Marcus Kettner         : VPT2
   Christian Kollmar      : KDIIS, OOCD, Brueckner-CCSD(T), CCSD density, CASPT2, CASPT2-K
   Simone Kossmann        : Meta GGA functionals, TD-DFT gradient, OOMP2, MP2 Hessian
   Martin Krupicka        : Initial AUTO-CI
   Lucas Lang             : DCDCAS
   Marvin Lechner         : AUTO-CI (C++ implementation), FIC-MRCC
   Dagmar Lenk            : GEPOL surface, SMD
   Dimitrios Liakos       : Extrapolation schemes; Compound Job, initial MDCI parallelization
   Dimitrios Manganas     : Further ROCIS development; embedding schemes
   Dimitrios Pantazis     : SARC Basis sets
   Anastasios Papadopoulos: AUTO-CI, single reference methods and gradients
   Taras Petrenko         : DFT Hessian,TD-DFT gradient, ASA, ECA, R-Raman, ABS, FL, XAS/XES, NRVS
   Peter Pinski           : DLPNO-MP2, DLPNO-MP2 Gradient
   Christoph Reimann      : Effective Core Potentials
   Marius Retegan         : Local ZFS, SOC
   Christoph Riplinger    : Optimizer, TS searches, QM/MM, DLPNO-CCSD(T), (RO)-DLPNO pert. Triples
   Tobias Risthaus        : Range-separated hybrids, TD-DFT gradient, RPA, STAB
   Michael Roemelt        : Original ROCIS implementation
   Masaaki Saitow         : Open-shell DLPNO-CCSD energy and density
   Barbara Sandhoefer     : DKH picture change effects
   Avijit Sen             : IP-ROCIS
   Kantharuban Sivalingam : CASSCF convergence, NEVPT2, FIC-MRCI
   Bernardo de Souza      : ESD, SOC TD-DFT
   Georgi Stoychev        : AutoAux, RI-MP2 NMR, DLPNO-MP2 response
   Willem Van den Heuvel  : Paramagnetic NMR
   Boris Wezisla          : Elementary symmetry handling
   Frank Wennmohs         : Technical directorship


 We gratefully acknowledge several colleagues who have allowed us to
 interface, adapt or use parts of their codes:
   Stefan Grimme, W. Hujo, H. Kruse, P. Pracht,  : VdW corrections, initial TS optimization,
                  C. Bannwarth, S. Ehlert          DFT functionals, gCP, sTDA/sTD-DF
   Ed Valeev, F. Pavosevic, A. Kumar             : LibInt (2-el integral package), F12 methods
   Garnet Chan, S. Sharma, J. Yang, R. Olivares  : DMRG
   Ulf Ekstrom                                   : XCFun DFT Library
   Mihaly Kallay                                 : mrcc  (arbitrary order and MRCC methods)
   Jiri Pittner, Ondrej Demel                    : Mk-CCSD
   Frank Weinhold                                : gennbo (NPA and NBO analysis)
   Christopher J. Cramer and Donald G. Truhlar   : smd solvation model
   Lars Goerigk                                  : TD-DFT with DH, B97 family of functionals
   V. Asgeirsson, H. Jonsson                     : NEB implementation
   FAccTs GmbH                                   : IRC, NEB, NEB-TS, DLPNO-Multilevel, CI-OPT
                                                   MM, QMMM, 2- and 3-layer-ONIOM, Crystal-QMMM,
                                                   LR-CPCM, SF, NACMEs, symmetry and pop. for TD-DFT,
                                                   nearIR, NL-DFT gradient (VV10), updates on ESD,
                                                   ML-optimized integration grids
   S Lehtola, MJT Oliveira, MAL Marques          : LibXC Library
   Liviu Ungur et al                             : ANISO software


 Your calculation uses the libint2 library for the computation of 2-el integrals
 For citations please refer to: http://libint.valeyev.net

 Your ORCA version has been built with support for libXC version: 5.1.0
 For citations please refer to: https://tddft.org/programs/libxc/

 This ORCA versions uses:
   CBLAS   interface :  Fast vector & matrix operations
   LAPACKE interface :  Fast linear algebra routines
   SCALAPACK package :  Parallel linear algebra routines
   Shared memory     :  Shared parallel matrices
   BLAS/LAPACK       :  OpenBLAS 0.3.15  USE64BITINT DYNAMIC_ARCH NO_AFFINITY Haswell SINGLE_THREADED
        Core in use  :  Haswell
   Copyright (c) 2011-2014, The OpenBLAS Project


Your calculation utilizes the atom-pairwise dispersion correction
with the Becke-Johnson damping scheme (D3BJ)
Cite in your paper:
S.Grimme, S.Ehrlich, L.Goerigk, J Comput Chem, (2011), 32, 1456–1465 
S.Grimme, J.Antony, S.Ehrlich and H.Krieg, J.Chem.Phys., 132, (2010), 154104 
   

================================================================================

----- Orbital basis set information -----
Your calculation utilizes the basis: def2-TZVP
   F. Weigend and R. Ahlrichs, Phys. Chem. Chem. Phys. 7, 3297 (2005).

----- AuxJ basis set information -----
Your calculation utilizes the auxiliary basis: def2/J
   F. Weigend, Phys. Chem. Chem. Phys. 8, 1057 (2006).

================================================================================
                                        WARNINGS
                       Please study these warnings very carefully!
================================================================================


WARNING: Geometry Optimization
  ===> : Switching off AutoStart
         For restart on a previous wavefunction, please use MOREAD

INFO   : the flag for use of the SHARK integral package has been found!

================================================================================
                                       INPUT FILE
================================================================================
NAME = desprop_oMe-Fentanyl_exoNProt_92.inp
|  1> ! wB97X-D3BJ TightOpt Freq def2-TZVP def2/J RIJCOSX TightSCF defgrid3 CHELPG
|  2> %maxcore 3400
|  3> 
|  4> %pal nprocs 8 
|  5> end
|  6> 
|  7> %chelpg
|  8> grid 0.1
|  9> rmax 3.0
| 10> end
| 11> 
| 12> *xyz 1 1
| 13> N          -2.19328000       0.19935300      -0.49271600
| 14> N           0.08693600       0.83027900       0.77604700
| 15> C          -0.80262800       2.05621100       0.67380700
| 16> C          -1.07138300       2.36363400      -0.79585600
| 17> C          -2.10976300       1.74840100       1.40122000
| 18> C          -1.79899100       1.18859900      -1.49208100
| 19> C          -3.00913500       0.84155400       0.53641300
| 20> C          -2.74782500      -1.02961300      -1.04671300
| 21> C          -2.79284400      -2.15494600       0.00080600
| 22> C           1.41874100       0.96249600       0.18538600
| 23> C          -1.53629600      -2.18584300       0.83873000
| 24> C           2.36940800       1.71815100       0.84445000
| 25> C           1.68429000       0.33329300      -1.01947500
| 26> C          -0.30350300      -2.49922700       0.26303900
| 27> C          -1.56652200      -1.84120100       2.18801600
| 28> C           3.62638600       1.84421500       0.26415400
| 29> C           2.93968200       0.45952300      -1.60517500
| 30> C           3.90321500       1.22441500      -0.94467400
| 31> C           0.86766300      -2.44417500       1.00706000
| 32> C          -0.39660400      -1.78869200       2.94158000
| 33> C           0.82736800      -2.07954100       2.34980000
| 34> H          -0.26169900       2.87364400       1.15090800
| 35> H          -0.14364700       2.60777400      -1.31493400
| 36> H          -1.68764200       3.26464400      -0.81481200
| 37> H          -2.61017000       2.69329400       1.61904900
| 38> H          -1.89625600       1.27725500       2.36520600
| 39> H          -2.66731800       1.55883900      -2.05577300
| 40> H          -1.13472500       0.70277300      -2.21016900
| 41> H          -3.47629200       0.08103900       1.15813700
| 42> H          -3.82045600       1.42251900       0.07417000
| 43> H          -3.74861300      -0.87457900      -1.47531500
| 44> H          -2.09197300      -1.32943700      -1.86884500
| 45> H          -2.92701400      -3.10374500      -0.52495000
| 46> H          -3.66232700      -2.04044600       0.65133400
| 47> H          -0.26100700      -2.79589100      -0.78107800
| 48> H          -2.51817100      -1.62367400       2.66312700
| 49> H           4.39164100       2.42734800       0.76261400
| 50> H           4.88896200       1.32951900      -1.38548300
| 51> H           1.81505900      -2.69291200       0.54208700
| 52> H          -0.44538200      -1.53878400       3.99626700
| 53> H           1.73964400      -2.04994300       2.93488400
| 54> H           0.16691000       0.53260800       1.75045100
| 55> H          -0.49263100       0.09654400       0.30635600
| 56> H           0.92017800      -0.27129300      -1.49605700
| 57> H           3.16115132      -0.01695858      -2.53727834
| 58> C           2.05300760       2.39662143       2.19024666
| 59> H           2.96541751       2.69810572       2.66090087
| 60> H           1.43829030       3.25584930       2.02068812
| 61> H           1.53547843       1.70731382       2.82421714
| 62> *
| 63> 
| 64> 
| 65>                          ****END OF INPUT****
================================================================================

                       *****************************
                       * Geometry Optimization Run *
                       *****************************

Geometry optimization settings:
Update method            Update   .... BFGS
Choice of coordinates    CoordSys .... Z-matrix Internals
Initial Hessian          InHess   .... Almoef's Model

Convergence Tolerances:
Energy Change            TolE     ....  1.0000e-06 Eh
Max. Gradient            TolMAXG  ....  1.0000e-04 Eh/bohr
RMS Gradient             TolRMSG  ....  3.0000e-05 Eh/bohr
Max. Displacement        TolMAXD  ....  1.0000e-03 bohr
RMS Displacement         TolRMSD  ....  6.0000e-04 bohr
Strict Convergence                ....  False
------------------------------------------------------------------------------
                        ORCA OPTIMIZATION COORDINATE SETUP
------------------------------------------------------------------------------

The optimization will be done in new redundant internal coordinates
Making redundant internal coordinates   ...  (new redundants) done
Evaluating the initial hessian          ...  (Almloef) done
Evaluating the coordinates              ...  done
Calculating the B-matrix                .... done
Calculating the G-matrix                .... done
Diagonalizing the G-matrix              .... done
Small eigenvalue found = 2.176e-03
Small eigenvalue found = 3.932e-03
Small eigenvalue found = 8.807e-03
Small eigenvalue found = 1.250e-02
Small eigenvalue found = 1.857e-02
Small eigenvalue found = 2.409e-02
The first mode is                       ....  142
The number of degrees of freedom        ....  141

    -----------------------------------------------------------------
                    Redundant Internal Coordinates


    -----------------------------------------------------------------
         Definition                    Initial Value    Approx d2E/dq
    -----------------------------------------------------------------
      1. B(C   2,N   1)                  1.5181         0.349518   
      2. B(C   3,C   2)                  1.5253         0.380032   
      3. B(C   4,C   2)                  1.5272         0.377374   
      4. B(C   5,N   0)                  1.4604         0.432054   
      5. B(C   5,C   3)                  1.5475         0.350275   
      6. B(C   6,C   4)                  1.5424         0.356882   
      7. B(C   6,N   0)                  1.4619         0.429700   
      8. B(C   7,N   0)                  1.4577         0.436434   
      9. B(C   8,C   7)                  1.5381         0.362646   
     10. B(C   9,N   1)                  1.4629         0.428128   
     11. B(C  10,C   8)                  1.5106         0.401135   
     12. B(C  11,C   9)                  1.3817         0.644095   
     13. B(C  12,C   9)                  1.3850         0.636482   
     14. B(C  13,C  10)                  1.3962         0.610699   
     15. B(C  14,C  10)                  1.3929         0.618099   
     16. B(C  15,C  11)                  1.3902         0.624360   
     17. B(C  16,C  12)                  1.3910         0.622418   
     18. B(C  17,C  16)                  1.3963         0.610451   
     19. B(C  17,C  15)                  1.3864         0.633159   
     20. B(C  18,C  13)                  1.3886         0.628003   
     21. B(C  19,C  14)                  1.3926         0.618866   
     22. B(C  20,C  19)                  1.3903         0.624133   
     23. B(C  20,C  18)                  1.3920         0.620330   
     24. B(H  21,C   2)                  1.0901         0.359902   
     25. B(H  22,C   3)                  1.0908         0.359106   
     26. B(H  23,C   3)                  1.0918         0.357771   
     27. B(H  24,C   4)                  1.0912         0.358539   
     28. B(H  25,C   4)                  1.0940         0.354849   
     29. B(H  26,C   5)                  1.0995         0.347797   
     30. B(H  27,C   5)                  1.0922         0.357186   
     31. B(H  28,C   6)                  1.0877         0.363114   
     32. B(H  29,C   6)                  1.0997         0.347441   
     33. B(H  30,C   7)                  1.0997         0.347510   
     34. B(H  31,C   7)                  1.0936         0.355383   
     35. B(H  32,C   8)                  1.0930         0.356158   
     36. B(H  33,C   8)                  1.0919         0.357564   
     37. B(H  34,C  13)                  1.0863         0.365060   
     38. B(H  35,C  14)                  1.0857         0.365871   
     39. B(H  36,C  15)                  1.0836         0.368709   
     40. B(H  37,C  17)                  1.0849         0.366880   
     41. B(H  38,C  18)                  1.0843         0.367768   
     42. B(H  39,C  19)                  1.0850         0.366792   
     43. B(H  40,C  20)                  1.0842         0.367882   
     44. B(H  41,C  20)                  2.7602         0.000779   
     45. B(H  41,N   1)                  1.0220         0.414060   
     46. B(H  42,N   1)                  1.0464         0.378600   
     47. B(H  43,C  12)                  1.0847         0.367212   
     48. B(H  44,C  16)                  1.0700         0.387554   
     49. B(C  45,C  11)                  1.5400         0.360100   
     50. B(H  46,C  45)                  1.0700         0.387554   
     51. B(H  47,C  45)                  1.0700         0.387554   
     52. B(H  48,C  45)                  1.0700         0.387554   
     53. A(C   5,N   0,C   7)          114.4397         0.377877   
     54. A(C   6,N   0,C   7)          115.1890         0.377520   
     55. A(C   5,N   0,C   6)          109.5625         0.376862   
     56. A(C   2,N   1,H  41)          110.1983         0.323509   
     57. A(C   2,N   1,H  42)          102.2087         0.318805   
     58. A(H  41,N   1,H  42)          105.4905         0.294814   
     59. A(C   2,N   1,C   9)          115.6758         0.363148   
     60. A(C   9,N   1,H  42)          112.7300         0.329603   
     61. A(C   9,N   1,H  41)          109.8796         0.334528   
     62. A(C   3,C   2,C   4)          110.4095         0.365049   
     63. A(N   1,C   2,H  21)          106.5761         0.318864   
     64. A(C   3,C   2,H  21)          110.9759         0.325204   
     65. A(N   1,C   2,C   4)          107.8594         0.357640   
     66. A(N   1,C   2,C   3)          109.3226         0.358067   
     67. A(C   4,C   2,H  21)          111.5531         0.324829   
     68. A(H  22,C   3,H  23)          106.6855         0.290417   
     69. A(C   2,C   3,H  23)          106.4103         0.324887   
     70. A(C   2,C   3,H  22)          110.7181         0.325086   
     71. A(C   2,C   3,C   5)          111.3020         0.360432   
     72. A(C   5,C   3,H  22)          110.8398         0.320769   
     73. A(C   5,C   3,H  23)          110.6969         0.320573   
     74. A(H  24,C   4,H  25)          106.6500         0.289972   
     75. A(C   2,C   4,H  25)          109.8435         0.324076   
     76. A(C   6,C   4,H  24)          110.7099         0.321668   
     77. A(C   2,C   4,H  24)          108.2433         0.324627   
     78. A(C   6,C   4,H  25)          110.7712         0.321124   
     79. A(C   2,C   4,C   6)          110.5178         0.361150   
     80. A(H  26,C   5,H  27)          107.0398         0.288890   
     81. A(N   0,C   5,C   3)          109.4755         0.366130   
     82. A(N   0,C   5,H  27)          108.2282         0.329749   
     83. A(C   3,C   5,H  27)          110.3393         0.320488   
     84. A(C   3,C   5,H  26)          110.2612         0.319096   
     85. A(N   0,C   5,H  26)          111.4517         0.328302   
     86. A(C   4,C   6,H  29)          110.8079         0.320018   
     87. A(H  28,C   6,H  29)          107.0232         0.289589   
     88. A(N   0,C   6,H  29)          110.3584         0.327951   
     89. A(C   4,C   6,H  28)          109.9389         0.322336   
     90. A(N   0,C   6,H  28)          109.5673         0.330349   
     91. A(N   0,C   6,C   4)          109.1209         0.366961   
     92. A(C   8,C   7,H  31)          109.2057         0.322046   
     93. A(C   8,C   7,H  30)          109.9958         0.320868   
     94. A(N   0,C   7,H  30)          112.0543         0.328804   
     95. A(N   0,C   7,C   8)          111.6632         0.368954   
     96. A(N   0,C   7,H  31)          106.7809         0.330023   
     97. A(H  30,C   7,H  31)          106.9440         0.288624   
     98. A(H  32,C   8,H  33)          106.2515         0.290015   
     99. A(C   7,C   8,H  33)          110.6301         0.322369   
    100. A(C  10,C   8,H  32)          110.5589         0.327546   
    101. A(C   7,C   8,H  32)          108.1262         0.322161   
    102. A(C   7,C   8,C  10)          111.6164         0.365940   
    103. A(C  10,C   8,H  33)          109.5141         0.327758   
    104. A(N   1,C   9,C  12)          118.9963         0.405587   
    105. A(N   1,C   9,C  11)          118.8956         0.406441   
    106. A(C  11,C   9,C  12)          122.1070         0.439130   
    107. A(C  13,C  10,C  14)          118.3006         0.432649   
    108. A(C   8,C  10,C  14)          120.9437         0.401464   
    109. A(C   8,C  10,C  13)          120.6857         0.400613   
    110. A(C   9,C  11,C  15)          118.2026         0.437609   
    111. A(C   9,C  11,C  45)          121.0925         0.396781   
    112. A(C  15,C  11,C  45)          120.7037         0.394620   
    113. A(C   9,C  12,C  16)          119.8753         0.436427   
    114. A(C  16,C  12,H  43)          120.0891         0.354313   
    115. A(C   9,C  12,H  43)          120.0264         0.355659   
    116. A(C  10,C  13,H  34)          119.4827         0.352823   
    117. A(C  10,C  13,C  18)          120.9888         0.433887   
    118. A(C  18,C  13,H  34)          119.5275         0.354497   
    119. A(C  10,C  14,C  19)          121.0152         0.433683   
    120. A(C  19,C  14,H  35)          119.4741         0.353751   
    121. A(C  10,C  14,H  35)          119.5051         0.353676   
    122. A(C  11,C  15,C  17)          120.2628         0.436261   
    123. A(C  17,C  15,H  36)          120.0447         0.355588   
    124. A(C  11,C  15,H  36)          119.6923         0.354745   
    125. A(C  12,C  16,C  17)          118.2487         0.433159   
    126. A(C  17,C  16,H  44)          120.8756         0.356393   
    127. A(C  12,C  16,H  44)          120.8756         0.357571   
    128. A(C  15,C  17,C  16)          121.3026         0.434494   
    129. A(C  16,C  17,H  37)          119.1991         0.353096   
    130. A(C  15,C  17,H  37)          119.4974         0.355288   
    131. A(C  13,C  18,C  20)          120.1874         0.435111   
    132. A(C  20,C  18,H  38)          119.9382         0.354203   
    133. A(C  13,C  18,H  38)          119.8729         0.354941   
    134. A(C  14,C  19,C  20)          120.0914         0.434442   
    135. A(C  20,C  19,H  39)          120.1013         0.354410   
    136. A(C  14,C  19,H  39)          119.7968         0.353901   
    137. A(C  18,C  20,C  19)          119.3991         0.434627   
    138. A(C  19,C  20,H  40)          120.3557         0.354588   
    139. A(C  18,C  20,H  40)          120.2231         0.354221   
    140. A(H  47,C  45,H  48)          109.4712         0.297665   
    141. A(H  46,C  45,H  48)          109.4712         0.297665   
    142. A(C  11,C  45,H  48)          109.4712         0.326284   
    143. A(H  46,C  45,H  47)          109.4713         0.297665   
    144. A(C  11,C  45,H  47)          109.4712         0.326284   
    145. A(C  11,C  45,H  46)          109.4712         0.326284   
    146. D(H  21,C   2,N   1,H  42)    179.8150         0.011263   
    147. D(H  21,C   2,N   1,H  41)     68.0522         0.011263   
    148. D(C   4,C   2,N   1,H  42)     59.9072         0.011263   
    149. D(C   3,C   2,N   1,H  42)    -60.1742         0.011263   
    150. D(C   3,C   2,N   1,H  41)   -171.9370         0.011263   
    151. D(C   4,C   2,N   1,C   9)   -177.2279         0.011263   
    152. D(C   4,C   2,N   1,H  41)    -51.8556         0.011263   
    153. D(H  21,C   2,N   1,C   9)    -57.3201         0.011263   
    154. D(C   3,C   2,N   1,C   9)     62.6907         0.011263   
    155. D(H  22,C   3,C   2,N   1)    -62.8587         0.011510   
    156. D(H  22,C   3,C   2,C   4)    178.6371         0.011510   
    157. D(H  23,C   3,C   2,N   1)   -178.4150         0.011510   
    158. D(H  23,C   3,C   2,H  21)    -61.1438         0.011510   
    159. D(C   5,C   3,C   2,N   1)     60.9019         0.011510   
    160. D(H  23,C   3,C   2,C   4)     63.0808         0.011510   
    161. D(C   5,C   3,C   2,C   4)    -57.6023         0.011510   
    162. D(C   5,C   3,C   2,H  21)    178.1731         0.011510   
    163. D(H  22,C   3,C   2,H  21)     54.4125         0.011510   
    164. D(H  24,C   4,C   2,H  21)     45.0440         0.011359   
    165. D(H  25,C   4,C   2,C   3)    165.0679         0.011359   
    166. D(H  25,C   4,C   2,N   1)     45.6739         0.011359   
    167. D(H  24,C   4,C   2,C   3)    -78.8483         0.011359   
    168. D(H  24,C   4,C   2,N   1)    161.7578         0.011359   
    169. D(H  25,C   4,C   2,H  21)    -71.0398         0.011359   
    170. D(C   6,C   4,C   2,N   1)    -76.8476         0.011359   
    171. D(C   6,C   4,C   2,C   3)     42.5464         0.011359   
    172. D(C   6,C   4,C   2,H  21)    166.4387         0.011359   
    173. D(H  26,C   5,N   0,C   7)     64.6555         0.015915   
    174. D(H  26,C   5,N   0,C   6)    -66.4633         0.015915   
    175. D(C   3,C   5,N   0,C   6)     55.7867         0.015915   
    176. D(C   3,C   5,N   0,C   7)   -173.0946         0.015915   
    177. D(H  27,C   5,C   3,H  23)    131.0584         0.009884   
    178. D(H  27,C   5,C   3,H  22)     12.8795         0.009884   
    179. D(H  27,C   5,C   3,C   2)   -110.8120         0.009884   
    180. D(H  26,C   5,C   3,H  22)   -105.1530         0.009884   
    181. D(H  26,C   5,C   3,H  23)     13.0259         0.009884   
    182. D(H  26,C   5,C   3,C   2)    131.1555         0.009884   
    183. D(N   0,C   5,C   3,H  23)   -109.9332         0.009884   
    184. D(N   0,C   5,C   3,H  22)    131.8879         0.009884   
    185. D(N   0,C   5,C   3,C   2)      8.1964         0.009884   
    186. D(H  27,C   5,N   0,C   7)    -52.7889         0.015915   
    187. D(H  27,C   5,N   0,C   6)    176.0924         0.015915   
    188. D(H  29,C   6,C   4,H  25)    134.8010         0.010231   
    189. D(H  29,C   6,C   4,H  24)     16.7013         0.010231   
    190. D(H  28,C   6,C   4,H  25)     16.7008         0.010231   
    191. D(H  28,C   6,C   4,H  24)   -101.3989         0.010231   
    192. D(H  28,C   6,C   4,C   2)    138.6781         0.010231   
    193. D(N   0,C   6,C   4,H  25)   -103.4872         0.010231   
    194. D(N   0,C   6,C   4,H  24)    138.4131         0.010231   
    195. D(N   0,C   6,C   4,C   2)     18.4902         0.010231   
    196. D(H  29,C   6,N   0,C   7)    -80.2907         0.015742   
    197. D(H  29,C   6,N   0,C   5)     50.4284         0.015742   
    198. D(H  28,C   6,N   0,C   7)     37.3094         0.015742   
    199. D(H  29,C   6,C   4,C   2)   -103.2216         0.010231   
    200. D(H  28,C   6,N   0,C   5)    168.0285         0.015742   
    201. D(C   4,C   6,N   0,C   7)    157.7258         0.015742   
    202. D(C   4,C   6,N   0,C   5)    -71.5552         0.015742   
    203. D(H  31,C   7,N   0,C   5)     45.5771         0.016240   
    204. D(H  30,C   7,N   0,C   6)     57.1243         0.016240   
    205. D(H  30,C   7,N   0,C   5)    -71.2051         0.016240   
    206. D(C   8,C   7,N   0,C   6)    -66.7868         0.016240   
    207. D(H  31,C   7,N   0,C   6)    173.9065         0.016240   
    208. D(C   8,C   7,N   0,C   5)    164.8837         0.016240   
    209. D(H  33,C   8,C   7,H  31)   -161.5327         0.010540   
    210. D(H  33,C   8,C   7,N   0)     80.6062         0.010540   
    211. D(H  32,C   8,C   7,H  31)    -45.5636         0.010540   
    212. D(H  32,C   8,C   7,H  30)     71.5123         0.010540   
    213. D(H  32,C   8,C   7,N   0)   -163.4246         0.010540   
    214. D(C  10,C   8,C   7,H  31)     76.2515         0.010540   
    215. D(H  33,C   8,C   7,H  30)    -44.4568         0.010540   
    216. D(C  10,C   8,C   7,H  30)   -166.6726         0.010540   
    217. D(C  10,C   8,C   7,N   0)    -41.6096         0.010540   
    218. D(C  12,C   9,N   1,H  42)     11.6206         0.015627   
    219. D(C  12,C   9,N   1,H  41)    128.9689         0.015627   
    220. D(C  12,C   9,N   1,C   2)   -105.4956         0.015627   
    221. D(C  11,C   9,N   1,H  42)   -168.7497         0.015627   
    222. D(C  11,C   9,N   1,H  41)    -51.4015         0.015627   
    223. D(C  11,C   9,N   1,C   2)     74.1341         0.015627   
    224. D(C  14,C  10,C   8,H  33)    -11.5350         0.011939   
    225. D(C  14,C  10,C   8,H  32)   -128.2802         0.011939   
    226. D(C  14,C  10,C   8,C   7)    111.3200         0.011939   
    227. D(C  13,C  10,C   8,H  33)    171.5578         0.011939   
    228. D(C  13,C  10,C   8,H  32)     54.8125         0.011939   
    229. D(C  13,C  10,C   8,C   7)    -65.5872         0.011939   
    230. D(C  45,C  11,C   9,C  12)   -179.4018         0.028849   
    231. D(C  45,C  11,C   9,N   1)      0.9806         0.028849   
    232. D(C  15,C  11,C   9,C  12)      0.1973         0.028849   
    233. D(C  15,C  11,C   9,N   1)   -179.4203         0.028849   
    234. D(H  43,C  12,C   9,C  11)    178.5401         0.028126   
    235. D(H  43,C  12,C   9,N   1)     -1.8427         0.028126   
    236. D(C  16,C  12,C   9,C  11)     -0.3563         0.028126   
    237. D(C  16,C  12,C   9,N   1)    179.2609         0.028126   
    238. D(H  34,C  13,C  10,C  14)    178.4060         0.025761   
    239. D(H  34,C  13,C  10,C   8)     -4.6066         0.025761   
    240. D(C  18,C  13,C  10,C  14)     -1.2482         0.025761   
    241. D(C  18,C  13,C  10,C   8)    175.7392         0.025761   
    242. D(H  35,C  14,C  10,C  13)   -178.1264         0.026427   
    243. D(H  35,C  14,C  10,C   8)      4.8943         0.026427   
    244. D(C  19,C  14,C  10,C  13)      1.0085         0.026427   
    245. D(C  19,C  14,C  10,C   8)   -175.9707         0.026427   
    246. D(H  36,C  15,C  11,C  45)     -0.1085         0.026998   
    247. D(H  36,C  15,C  11,C   9)   -179.7092         0.026998   
    248. D(C  17,C  15,C  11,C  45)    179.7010         0.026998   
    249. D(C  17,C  15,C  11,C   9)      0.1003         0.026998   
    250. D(H  44,C  16,C  12,H  43)      1.3136         0.026820   
    251. D(H  44,C  16,C  12,C   9)   -179.7907         0.026820   
    252. D(C  17,C  16,C  12,H  43)   -178.6864         0.026820   
    253. D(C  17,C  16,C  12,C   9)      0.2093         0.026820   
    254. D(H  37,C  17,C  16,H  44)     -0.2710         0.025739   
    255. D(H  37,C  17,C  16,C  12)    179.7290         0.025739   
    256. D(C  15,C  17,C  16,H  44)   -179.9172         0.025739   
    257. D(C  15,C  17,C  16,C  12)      0.0828         0.025739   
    258. D(H  37,C  17,C  15,H  36)     -0.0770         0.027814   
    259. D(H  37,C  17,C  15,C  11)   -179.8858         0.027814   
    260. D(C  16,C  17,C  15,H  36)    179.5682         0.027814   
    261. D(C  16,C  17,C  15,C  11)     -0.2407         0.027814   
    262. D(H  38,C  18,C  13,H  34)      0.2445         0.027334   
    263. D(H  38,C  18,C  13,C  10)    179.8985         0.027334   
    264. D(C  20,C  18,C  13,H  34)   -179.3168         0.027334   
    265. D(C  20,C  18,C  13,C  10)      0.3372         0.027334   
    266. D(H  39,C  19,C  14,H  35)      0.4513         0.026496   
    267. D(H  39,C  19,C  14,C  10)   -178.6838         0.026496   
    268. D(C  20,C  19,C  14,H  35)    179.2773         0.026496   
    269. D(C  20,C  19,C  14,C  10)      0.1421         0.026496   
    270. D(H  40,C  20,C  18,C  13)    179.1337         0.028937   
    271. D(C  19,C  20,C  18,H  38)   -178.7255         0.028937   
    272. D(C  19,C  20,C  18,C  13)      0.8356         0.028937   
    273. D(H  40,C  20,C  19,H  39)     -0.5452         0.029317   
    274. D(H  40,C  20,C  19,C  14)   -179.3675         0.029317   
    275. D(C  18,C  20,C  19,H  39)    177.7507         0.029317   
    276. D(C  18,C  20,C  19,C  14)     -1.0717         0.029317   
    277. D(H  40,C  20,C  18,H  38)     -0.4274         0.028937   
    278. D(H  48,C  45,C  11,C  15)   -134.9652         0.009750   
    279. D(H  48,C  45,C  11,C   9)     44.6239         0.009750   
    280. D(H  47,C  45,C  11,C  15)    105.0348         0.009750   
    281. D(H  47,C  45,C  11,C   9)    -75.3761         0.009750   
    282. D(H  46,C  45,C  11,C  15)    -14.9652         0.009750   
    283. D(H  46,C  45,C  11,C   9)    164.6239         0.009750   
    -----------------------------------------------------------------

Number of atoms                         .... 49
Number of degrees of freedom            .... 283

         *************************************************************
         *                GEOMETRY OPTIMIZATION CYCLE   1            *
         *************************************************************
---------------------------------
CARTESIAN COORDINATES (ANGSTROEM)
---------------------------------
  N     -2.193280    0.199353   -0.492716
  N      0.086936    0.830279    0.776047
  C     -0.802628    2.056211    0.673807
  C     -1.071383    2.363634   -0.795856
  C     -2.109763    1.748401    1.401220
  C     -1.798991    1.188599   -1.492081
  C     -3.009135    0.841554    0.536413
  C     -2.747825   -1.029613   -1.046713
  C     -2.792844   -2.154946    0.000806
  C      1.418741    0.962496    0.185386
  C     -1.536296   -2.185843    0.838730
  C      2.369408    1.718151    0.844450
  C      1.684290    0.333293   -1.019475
  C     -0.303503   -2.499227    0.263039
  C     -1.566522   -1.841201    2.188016
  C      3.626386    1.844215    0.264154
  C      2.939682    0.459523   -1.605175
  C      3.903215    1.224415   -0.944674
  C      0.867663   -2.444175    1.007060
  C     -0.396604   -1.788692    2.941580
  C      0.827368   -2.079541    2.349800
  H     -0.261699    2.873644    1.150908
  H     -0.143647    2.607774   -1.314934
  H     -1.687642    3.264644   -0.814812
  H     -2.610170    2.693294    1.619049
  H     -1.896256    1.277255    2.365206
  H     -2.667318    1.558839   -2.055773
  H     -1.134725    0.702773   -2.210169
  H     -3.476292    0.081039    1.158137
  H     -3.820456    1.422519    0.074170
  H     -3.748613   -0.874579   -1.475315
  H     -2.091973   -1.329437   -1.868845
  H     -2.927014   -3.103745   -0.524950
  H     -3.662327   -2.040446    0.651334
  H     -0.261007   -2.795891   -0.781078
  H     -2.518171   -1.623674    2.663127
  H      4.391641    2.427348    0.762614
  H      4.888962    1.329519   -1.385483
  H      1.815059   -2.692912    0.542087
  H     -0.445382   -1.538784    3.996267
  H      1.739644   -2.049943    2.934884
  H      0.166910    0.532608    1.750451
  H     -0.492631    0.096544    0.306356
  H      0.920178   -0.271293   -1.496057
  H      3.161151   -0.016959   -2.537278
  C      2.053008    2.396621    2.190247
  H      2.965418    2.698106    2.660901
  H      1.438290    3.255849    2.020688
  H      1.535478    1.707314    2.824217

----------------------------
CARTESIAN COORDINATES (A.U.)
----------------------------
  NO LB      ZA    FRAG     MASS         X           Y           Z
   0 N     7.0000    0    14.007   -4.144699    0.376723   -0.931098
   1 N     7.0000    0    14.007    0.164285    1.569000    1.466516
   2 C     6.0000    0    12.011   -1.516747    3.885676    1.273311
   3 C     6.0000    0    12.011   -2.024620    4.466621   -1.503950
   4 C     6.0000    0    12.011   -3.986874    3.303999    2.647922
   5 C     6.0000    0    12.011   -3.399600    2.246127   -2.819624
   6 C     6.0000    0    12.011   -5.686441    1.590307    1.013674
   7 C     6.0000    0    12.011   -5.192637   -1.945687   -1.978001
   8 C     6.0000    0    12.011   -5.277710   -4.072258    0.001523
   9 C     6.0000    0    12.011    2.681032    1.818854    0.350329
  10 C     6.0000    0    12.011   -2.903179   -4.130645    1.584970
  11 C     6.0000    0    12.011    4.477532    3.246835    1.595779
  12 C     6.0000    0    12.011    3.182847    0.629832   -1.926529
  13 C     6.0000    0    12.011   -0.573538   -4.722855    0.497072
  14 C     6.0000    0    12.011   -2.960298   -3.479366    4.134751
  15 C     6.0000    0    12.011    6.852876    3.485061    0.499179
  16 C     6.0000    0    12.011    5.555194    0.868373   -3.033341
  17 C     6.0000    0    12.011    7.376007    2.313809   -1.785175
  18 C     6.0000    0    12.011    1.639645   -4.618821    1.903068
  19 C     6.0000    0    12.011   -0.749473   -3.380138    5.558781
  20 C     6.0000    0    12.011    1.563499   -3.929763    4.440478
  21 H     1.0000    0     1.008   -0.494539    5.430400    2.174901
  22 H     1.0000    0     1.008   -0.271453    4.927979   -2.484865
  23 H     1.0000    0     1.008   -3.189181    6.169283   -1.539772
  24 H     1.0000    0     1.008   -4.932506    5.089588    3.059559
  25 H     1.0000    0     1.008   -3.583405    2.413662    4.469592
  26 H     1.0000    0     1.008   -5.040501    2.945779   -3.884848
  27 H     1.0000    0     1.008   -2.144319    1.328049   -4.176614
  28 H     1.0000    0     1.008   -6.569240    0.153142    2.188562
  29 H     1.0000    0     1.008   -7.219616    2.688171    0.140161
  30 H     1.0000    0     1.008   -7.083852   -1.652715   -2.787941
  31 H     1.0000    0     1.008   -3.953256   -2.512272   -3.531605
  32 H     1.0000    0     1.008   -5.531255   -5.865228   -0.992012
  33 H     1.0000    0     1.008   -6.920795   -3.855884    1.230843
  34 H     1.0000    0     1.008   -0.493232   -5.283468   -1.476024
  35 H     1.0000    0     1.008   -4.758654   -3.068299    5.032581
  36 H     1.0000    0     1.008    8.298999    4.587023    1.441132
  37 H     1.0000    0     1.008    9.238799    2.512427   -2.618183
  38 H     1.0000    0     1.008    3.429964   -5.088866    1.024396
  39 H     1.0000    0     1.008   -0.841650   -2.907880    7.551850
  40 H     1.0000    0     1.008    3.287451   -3.873831    5.546127
  41 H     1.0000    0     1.008    0.315414    1.006483    3.307873
  42 H     1.0000    0     1.008   -0.930938    0.182442    0.578929
  43 H     1.0000    0     1.008    1.738884   -0.512669   -2.827138
  44 H     1.0000    0     1.008    5.973710   -0.032047   -4.794761
  45 C     6.0000    0    12.011    3.879622    4.528958    4.138966
  46 H     1.0000    0     1.008    5.603827    5.098681    5.028374
  47 H     1.0000    0     1.008    2.717975    6.152664    3.818547
  48 H     1.0000    0     1.008    2.901634    3.226356    5.336997

--------------------------------
INTERNAL COORDINATES (ANGSTROEM)
--------------------------------
 N      0   0   0     0.000000000000     0.00000000     0.00000000
 N      1   0   0     2.684625145956     0.00000000     0.00000000
 C      2   1   0     1.518119361684    70.13887616     0.00000000
 C      3   2   1     1.525335203987   109.32255183   300.10851132
 C      3   2   1     1.527245421304   107.85940290    60.18995299
 C      1   2   3     1.460411540376    86.26721522    60.86032581
 C      1   2   3     1.461898766696    92.18195414   311.39087026
 C      1   2   3     1.457666032461   134.49796469   182.00321162
 C      8   1   2     1.538082288634   111.66322077    54.62237510
 C      2   1   3     1.462896547961   127.13324754   252.28246472
 C      9   8   1     1.510623755503   111.61639625   318.39043437
 C     10   2   1     1.381719066963   118.89564827   157.88719135
 C     10   2   1     1.384955853423   118.99629505   338.25751185
 C     11   9   8     1.396212104154   120.68574327   294.41280564
 C     11   9   8     1.392933748976   120.94371969   111.32001872
 C     12  10   2     1.390190372645   118.20256737   180.57965866
 C     13  10   2     1.391038308805   119.87533539   179.26089513
 C     16  12  10     1.386380708473   120.26277808     0.10030073
 C     14  11   9     1.388606413171   120.98884538   175.73922153
 C     15  11   9     1.392596145299   121.01517573   184.02927219
 C     20  15  11     1.390289238247   120.09144576     0.14212456
 H      3   2   1     1.090149648778   106.57614904   180.09774391
 H      4   3   2     1.090752215391   110.71811411   297.14126499
 H      4   3   2     1.091766231900   106.41029040   181.58495990
 H      5   3   2     1.091182578829   108.24330373   161.75775562
 H      5   3   2     1.093998537733   109.84345690    45.67393301
 H      6   1   2     1.099462644837   111.45173969   202.54499317
 H      6   1   2     1.092211791172   108.22815659    85.10063365
 H      7   1   2     1.087731336337   109.56725274   254.84104865
 H      7   1   2     1.099741191060   110.35841069   137.24093813
 H      8   1   2     1.099687153923   112.05433115   178.53350824
 H      8   1   2     1.093589183516   106.78087747   295.31570974
 H      9   8   1     1.092996112910   108.12624512   196.57537022
 H      9   8   1     1.091923814226   110.63010858    80.60622564
 H     14  11   9     1.086276092253   119.48274130   355.39337528
 H     15  11   9     1.085672269726   119.50509108     4.89434869
 H     16  12  10     1.083568955957   119.69228400   180.29081304
 H     18  16  12     1.084922381236   119.49738582   180.11422807
 H     19  14  11     1.084264343559   119.87294129   179.89854592
 H     20  15  11     1.084987543577   119.79684368   181.31616156
 H     21  20  15     1.084180256616   120.35566665   180.63246853
 H      2   1   3     1.021991692791   116.65458437   103.26405777
 H      2   1   3     1.046362553418    32.07103837   179.47959949
 H     13  10   2     1.084675888302   120.02638851   358.15730433
 H     17  13  10     1.069999996364   120.87564423   180.20931256
 C     12  10   2     1.539999995965   121.09245957     0.98058772
 H     46  12  10     1.070000002978   109.47120265   164.62388230
 H     46  12  10     1.069999995323   109.47120302   284.62389691
 H     46  12  10     1.069999996503   109.47123159    44.62388984

---------------------------
INTERNAL COORDINATES (A.U.)
---------------------------
 N      0   0   0     0.000000000000     0.00000000     0.00000000
 N      1   0   0     5.073206298096     0.00000000     0.00000000
 C      2   1   0     2.868829832186    70.13887616     0.00000000
 C      3   2   1     2.882465797965   109.32255183   300.10851132
 C      3   2   1     2.886075585550   107.85940290    60.18995299
 C      1   2   3     2.759777854128    86.26721522    60.86032581
 C      1   2   3     2.762588304572    92.18195414   311.39087026
 C      1   2   3     2.754589596070   134.49796469   182.00321162
 C      8   1   2     2.906554296954   111.66322077    54.62237510
 C      2   1   3     2.764473837904   127.13324754   252.28246472
 C      9   8   1     2.854665189296   111.61639625   318.39043437
 C     10   2   1     2.611070630578   118.89564827   157.88719135
 C     10   2   1     2.617187270541   118.99629505   338.25751185
 C     11   9   8     2.638458501717   120.68574327   294.41280564
 C     11   9   8     2.632263308261   120.94371969   111.32001872
 C     12  10   2     2.627079078314   118.20256737   180.57965866
 C     13  10   2     2.628681445435   119.87533539   179.26089513
 C     16  12  10     2.619879856365   120.26277808     0.10030073
 C     14  11   9     2.624085828701   120.98884538   175.73922153
 C     15  11   9     2.631625329769   121.01517573   184.02927219
 C     20  15  11     2.627265907225   120.09144576     0.14212456
 H      3   2   1     2.060084281181   106.57614904   180.09774391
 H      4   3   2     2.061222967057   110.71811411   297.14126499
 H      4   3   2     2.063139180554   106.41029040   181.58495990
 H      5   3   2     2.062036236092   108.24330373   161.75775562
 H      5   3   2     2.067357627225   109.84345690    45.67393301
 H      6   1   2     2.077683293220   111.45173969   202.54499317
 H      6   1   2     2.063981165555   108.22815659    85.10063365
 H      7   1   2     2.055514332962   109.56725274   254.84104865
 H      7   1   2     2.078209669297   110.35841069   137.24093813
 H      8   1   2     2.078107553906   112.05433115   178.53350824
 H      8   1   2     2.066584059864   106.78087747   295.31570974
 H      9   8   1     2.065463318841   108.12624512   196.57537022
 H      9   8   1     2.063436967993   110.63010858    80.60622564
 H     14  11   9     2.052764320185   119.48274130   355.39337528
 H     15  11   9     2.051623260974   119.50509108     4.89434869
 H     16  12  10     2.047648573978   119.69228400   180.29081304
 H     18  16  12     2.050206177097   119.49738582   180.11422807
 H     19  14  11     2.048962666103   119.87294129   179.89854592
 H     20  15  11     2.050329316076   119.79684368   181.31616156
 H     21  20  15     2.048803764809   120.35566665   180.63246853
 H      2   1   3     1.931284410517   116.65458437   103.26405777
 H      2   1   3     1.977338662750    32.07103837   179.47959949
 H     13  10   2     2.049740372959   120.02638851   358.15730433
 H     17  13  10     2.022006956425   120.87564423   180.20931256
 C     12  10   2     2.910178238613   121.09245957     0.98058772
 H     46  12  10     2.022006968924   109.47120265   164.62388230
 H     46  12  10     2.022006954457   109.47120302   284.62389691
 H     46  12  10     2.022006956687   109.47123159    44.62388984

---------------------
BASIS SET INFORMATION
---------------------
There are 3 groups of distinct atoms

 Group   1 Type N   : 11s6p2d1f contracted to 5s3p2d1f pattern {62111/411/11/1}
 Group   2 Type C   : 11s6p2d1f contracted to 5s3p2d1f pattern {62111/411/11/1}
 Group   3 Type H   : 5s1p contracted to 3s1p pattern {311/1}

Atom   0N    basis set group =>   1
Atom   1N    basis set group =>   1
Atom   2C    basis set group =>   2
Atom   3C    basis set group =>   2
Atom   4C    basis set group =>   2
Atom   5C    basis set group =>   2
Atom   6C    basis set group =>   2
Atom   7C    basis set group =>   2
Atom   8C    basis set group =>   2
Atom   9C    basis set group =>   2
Atom  10C    basis set group =>   2
Atom  11C    basis set group =>   2
Atom  12C    basis set group =>   2
Atom  13C    basis set group =>   2
Atom  14C    basis set group =>   2
Atom  15C    basis set group =>   2
Atom  16C    basis set group =>   2
Atom  17C    basis set group =>   2
Atom  18C    basis set group =>   2
Atom  19C    basis set group =>   2
Atom  20C    basis set group =>   2
Atom  21H    basis set group =>   3
Atom  22H    basis set group =>   3
Atom  23H    basis set group =>   3
Atom  24H    basis set group =>   3
Atom  25H    basis set group =>   3
Atom  26H    basis set group =>   3
Atom  27H    basis set group =>   3
Atom  28H    basis set group =>   3
Atom  29H    basis set group =>   3
Atom  30H    basis set group =>   3
Atom  31H    basis set group =>   3
Atom  32H    basis set group =>   3
Atom  33H    basis set group =>   3
Atom  34H    basis set group =>   3
Atom  35H    basis set group =>   3
Atom  36H    basis set group =>   3
Atom  37H    basis set group =>   3
Atom  38H    basis set group =>   3
Atom  39H    basis set group =>   3
Atom  40H    basis set group =>   3
Atom  41H    basis set group =>   3
Atom  42H    basis set group =>   3
Atom  43H    basis set group =>   3
Atom  44H    basis set group =>   3
Atom  45C    basis set group =>   2
Atom  46H    basis set group =>   3
Atom  47H    basis set group =>   3
Atom  48H    basis set group =>   3
---------------------------------
AUXILIARY/J BASIS SET INFORMATION
---------------------------------
There are 3 groups of distinct atoms

 Group   1 Type N   : 12s5p4d2f1g contracted to 6s4p3d1f1g pattern {711111/2111/211/2/1}
 Group   2 Type C   : 12s5p4d2f1g contracted to 6s4p3d1f1g pattern {711111/2111/211/2/1}
 Group   3 Type H   : 5s2p1d contracted to 3s1p1d pattern {311/2/1}

Atom   0N    basis set group =>   1
Atom   1N    basis set group =>   1
Atom   2C    basis set group =>   2
Atom   3C    basis set group =>   2
Atom   4C    basis set group =>   2
Atom   5C    basis set group =>   2
Atom   6C    basis set group =>   2
Atom   7C    basis set group =>   2
Atom   8C    basis set group =>   2
Atom   9C    basis set group =>   2
Atom  10C    basis set group =>   2
Atom  11C    basis set group =>   2
Atom  12C    basis set group =>   2
Atom  13C    basis set group =>   2
Atom  14C    basis set group =>   2
Atom  15C    basis set group =>   2
Atom  16C    basis set group =>   2
Atom  17C    basis set group =>   2
Atom  18C    basis set group =>   2
Atom  19C    basis set group =>   2
Atom  20C    basis set group =>   2
Atom  21H    basis set group =>   3
Atom  22H    basis set group =>   3
Atom  23H    basis set group =>   3
Atom  24H    basis set group =>   3
Atom  25H    basis set group =>   3
Atom  26H    basis set group =>   3
Atom  27H    basis set group =>   3
Atom  28H    basis set group =>   3
Atom  29H    basis set group =>   3
Atom  30H    basis set group =>   3
Atom  31H    basis set group =>   3
Atom  32H    basis set group =>   3
Atom  33H    basis set group =>   3
Atom  34H    basis set group =>   3
Atom  35H    basis set group =>   3
Atom  36H    basis set group =>   3
Atom  37H    basis set group =>   3
Atom  38H    basis set group =>   3
Atom  39H    basis set group =>   3
Atom  40H    basis set group =>   3
Atom  41H    basis set group =>   3
Atom  42H    basis set group =>   3
Atom  43H    basis set group =>   3
Atom  44H    basis set group =>   3
Atom  45C    basis set group =>   2
Atom  46H    basis set group =>   3
Atom  47H    basis set group =>   3
Atom  48H    basis set group =>   3


           ************************************************************
           *        Program running with 8 parallel MPI-processes     *
           *              working on a common directory               *
           ************************************************************
------------------------------------------------------------------------------
                           ORCA GTO INTEGRAL CALCULATION
                           -- RI-GTO INTEGRALS CHOSEN --
------------------------------------------------------------------------------
------------------------------------------------------------------------------
                   ___                                                        
                  /   \      - P O W E R E D   B Y -                         
                 /     \                                                     
                 |  |  |   _    _      __       _____    __    __             
                 |  |  |  | |  | |    /  \     |  _  \  |  |  /  |          
                  \  \/   | |  | |   /    \    | | | |  |  | /  /          
                 / \  \   | |__| |  /  /\  \   | |_| |  |  |/  /          
                |  |  |   |  __  | /  /__\  \  |    /   |      \           
                |  |  |   | |  | | |   __   |  |    \   |  |\   \          
                \     /   | |  | | |  |  |  |  | |\  \  |  | \   \       
                 \___/    |_|  |_| |__|  |__|  |_| \__\ |__|  \__/        
                                                                              
                      - O R C A' S   B I G   F R I E N D -                    
                                      &                                       
                       - I N T E G R A L  F E E D E R -                       
                                                                              
 v1 FN, 2020, v2 2021                                                         
------------------------------------------------------------------------------


Reading SHARK input file desprop_oMe-Fentanyl_exoNProt_92.SHARKINP.tmp ... ok
----------------------
SHARK INTEGRAL PACKAGE
----------------------

Number of atoms                             ...     49
Number of basis functions                   ...    844
Number of shells                            ...    350
Maximum angular momentum                    ...      3
Integral batch strategy                     ... SHARK/LIBINT Hybrid
RI-J (if used) integral strategy            ... SPLIT-RIJ (Revised 2003 algorithm where possible)
Printlevel                                  ...      1
Contraction scheme used                     ... SEGMENTED contraction
Coulomb Range Separation                    ... NOT USED
Exchange Range Separation                   ... Long Range
   Mu parameter                             ...  0.300000
   Scaling (regular/separated)              ...  0.167000  0.833000
Finite Nucleus Model                        ... NOT USED
Auxiliary Coulomb fitting basis             ... AVAILABLE
   # of basis functions in Aux-J            ...   1375
   # of shells in Aux-J                     ...    465
   Maximum angular momentum in Aux-J        ...      4
Auxiliary J/K fitting basis                 ... NOT available
Auxiliary Correlation fitting basis         ... NOT available
Auxiliary 'external' fitting basis          ... NOT available
Integral threshold                          ...     2.500000e-11
Primitive cut-off                           ...     2.500000e-12
Primitive pair pre-selection threshold      ...     2.500000e-12

Calculating pre-screening integrals         ... done (  0.1 sec) Dimension = 350
Organizing shell pair data                  ... done (  0.5 sec)
Shell pair information
Total number of shell pairs                 ...     61425
Shell pairs after pre-screening             ...     48427
Total number of primitive shell pairs       ...    182068
Primitive shell pairs kept                  ...     96670
          la=0 lb=0:  14052 shell pairs
          la=1 lb=0:  14230 shell pairs
          la=1 lb=1:   3670 shell pairs
          la=2 lb=0:   6586 shell pairs
          la=2 lb=1:   3401 shell pairs
          la=2 lb=2:    826 shell pairs
          la=3 lb=0:   3081 shell pairs
          la=3 lb=1:   1629 shell pairs
          la=3 lb=2:    756 shell pairs
          la=3 lb=3:    196 shell pairs

Calculating one electron integrals          ... done (  0.1 sec)
Calculating RI/J V-Matrix + Cholesky decomp.... done (  0.4 sec)
Calculating Nuclear repulsion               ... done (  0.0 sec) ENN=   1945.941754301881 Eh

SHARK setup successfully completed in   2.1 seconds

Maximum memory used throughout the entire GTOINT-calculation: 69.6 MB
[1704171410.291384] [gra290:30245:0]          mpool.c:42   UCX  WARN  object 0xc407fc0 was not returned to mpool ucp_requests
[1704171410.291413] [gra290:30245:0]          mpool.c:42   UCX  WARN  object 0xc408180 was not returned to mpool ucp_requests
[1704171410.291420] [gra290:30245:0]          mpool.c:42   UCX  WARN  object 0xc408340 was not returned to mpool ucp_requests
[1704171410.291427] [gra290:30245:0]          mpool.c:42   UCX  WARN  object 0xc408500 was not returned to mpool ucp_requests
[1704171410.291433] [gra290:30245:0]          mpool.c:42   UCX  WARN  object 0xc4086c0 was not returned to mpool ucp_requests
[1704171410.291442] [gra290:30245:0]          mpool.c:42   UCX  WARN  object 0xc408880 was not returned to mpool ucp_requests
[1704171410.291447] [gra290:30245:0]          mpool.c:42   UCX  WARN  object 0xc408a40 was not returned to mpool ucp_requests
[1704171410.291453] [gra290:30245:0]          mpool.c:42   UCX  WARN  object 0xc408c00 was not returned to mpool ucp_requests
[1704171410.291487] [gra290:30245:0]          mpool.c:42   UCX  WARN  object 0xc408dc0 was not returned to mpool ucp_requests
[1704171410.291494] [gra290:30245:0]          mpool.c:42   UCX  WARN  object 0xc408f80 was not returned to mpool ucp_requests
[1704171410.291517] [gra290:30245:0]          mpool.c:42   UCX  WARN  object 0xc409140 was not returned to mpool ucp_requests
[1704171410.294756] [gra290:30249:0]          mpool.c:42   UCX  WARN  object 0xb2d80c0 was not returned to mpool ucp_requests
[1704171410.294790] [gra290:30249:0]          mpool.c:42   UCX  WARN  object 0xb2d8280 was not returned to mpool ucp_requests
[1704171410.294802] [gra290:30249:0]          mpool.c:42   UCX  WARN  object 0xb2d8440 was not returned to mpool ucp_requests
[1704171410.294814] [gra290:30249:0]          mpool.c:42   UCX  WARN  object 0xb2d8600 was not returned to mpool ucp_requests
[1704171410.294846] [gra290:30249:0]          mpool.c:42   UCX  WARN  object 0xb2d87c0 was not returned to mpool ucp_requests
[1704171410.294856] [gra290:30249:0]          mpool.c:42   UCX  WARN  object 0xb2d8980 was not returned to mpool ucp_requests
[1704171410.294866] [gra290:30249:0]          mpool.c:42   UCX  WARN  object 0xb2d8b40 was not returned to mpool ucp_requests
[1704171410.294876] [gra290:30249:0]          mpool.c:42   UCX  WARN  object 0xb2d8d00 was not returned to mpool ucp_requests
[1704171410.294885] [gra290:30249:0]          mpool.c:42   UCX  WARN  object 0xb2d8ec0 was not returned to mpool ucp_requests
[1704171410.294894] [gra290:30249:0]          mpool.c:42   UCX  WARN  object 0xb2d9080 was not returned to mpool ucp_requests
[1704171410.296545] [gra290:30250:0]          mpool.c:42   UCX  WARN  object 0xc162200 was not returned to mpool ucp_requests
[1704171410.296610] [gra290:30250:0]          mpool.c:42   UCX  WARN  object 0xc1623c0 was not returned to mpool ucp_requests
[1704171410.296624] [gra290:30250:0]          mpool.c:42   UCX  WARN  object 0xc162580 was not returned to mpool ucp_requests
[1704171410.296652] [gra290:30250:0]          mpool.c:42   UCX  WARN  object 0xc162740 was not returned to mpool ucp_requests
[1704171410.296675] [gra290:30250:0]          mpool.c:42   UCX  WARN  object 0xc162900 was not returned to mpool ucp_requests
[1704171410.296686] [gra290:30250:0]          mpool.c:42   UCX  WARN  object 0xc162ac0 was not returned to mpool ucp_requests
[1704171410.296697] [gra290:30250:0]          mpool.c:42   UCX  WARN  object 0xc162c80 was not returned to mpool ucp_requests
[1704171410.296707] [gra290:30250:0]          mpool.c:42   UCX  WARN  object 0xc162e40 was not returned to mpool ucp_requests
[1704171410.296717] [gra290:30250:0]          mpool.c:42   UCX  WARN  object 0xc163000 was not returned to mpool ucp_requests
[1704171410.296728] [gra290:30250:0]          mpool.c:42   UCX  WARN  object 0xc1631c0 was not returned to mpool ucp_requests
[1704171410.364188] [gra290:30247:0]          mpool.c:42   UCX  WARN  object 0xbb1eb40 was not returned to mpool ucp_requests
[1704171410.364224] [gra290:30247:0]          mpool.c:42   UCX  WARN  object 0xbb1ed00 was not returned to mpool ucp_requests
[1704171410.364235] [gra290:30247:0]          mpool.c:42   UCX  WARN  object 0xbb1eec0 was not returned to mpool ucp_requests
[1704171410.364245] [gra290:30247:0]          mpool.c:42   UCX  WARN  object 0xbb1f080 was not returned to mpool ucp_requests
[1704171410.364253] [gra290:30247:0]          mpool.c:42   UCX  WARN  object 0xbb1f240 was not returned to mpool ucp_requests
[1704171410.364262] [gra290:30247:0]          mpool.c:42   UCX  WARN  object 0xbb1f400 was not returned to mpool ucp_requests
[1704171410.364271] [gra290:30247:0]          mpool.c:42   UCX  WARN  object 0xbb1f5c0 was not returned to mpool ucp_requests
[1704171410.364281] [gra290:30247:0]          mpool.c:42   UCX  WARN  object 0xbb1f780 was not returned to mpool ucp_requests
[1704171410.364289] [gra290:30247:0]          mpool.c:42   UCX  WARN  object 0xbb1f940 was not returned to mpool ucp_requests
[1704171410.364298] [gra290:30247:0]          mpool.c:42   UCX  WARN  object 0xbb1fb00 was not returned to mpool ucp_requests
[1704171410.364306] [gra290:30247:0]          mpool.c:42   UCX  WARN  object 0xbb1fcc0 was not returned to mpool ucp_requests
[1704171410.364314] [gra290:30247:0]          mpool.c:42   UCX  WARN  object 0xbb1fe80 was not returned to mpool ucp_requests
[1704171410.364541] [gra290:30244:0]          mpool.c:42   UCX  WARN  object 0xc388240 was not returned to mpool ucp_requests
[1704171410.364582] [gra290:30244:0]          mpool.c:42   UCX  WARN  object 0xc388400 was not returned to mpool ucp_requests
[1704171410.364594] [gra290:30244:0]          mpool.c:42   UCX  WARN  object 0xc3885c0 was not returned to mpool ucp_requests
[1704171410.364604] [gra290:30244:0]          mpool.c:42   UCX  WARN  object 0xc388780 was not returned to mpool ucp_requests
[1704171410.364614] [gra290:30244:0]          mpool.c:42   UCX  WARN  object 0xc388940 was not returned to mpool ucp_requests
[1704171410.364623] [gra290:30244:0]          mpool.c:42   UCX  WARN  object 0xc388b00 was not returned to mpool ucp_requests
[1704171410.364632] [gra290:30244:0]          mpool.c:42   UCX  WARN  object 0xc388cc0 was not returned to mpool ucp_requests
[1704171410.364641] [gra290:30244:0]          mpool.c:42   UCX  WARN  object 0xc388e80 was not returned to mpool ucp_requests
[1704171410.366469] [gra290:30246:0]          mpool.c:42   UCX  WARN  object 0xbfb9fc0 was not returned to mpool ucp_requests
[1704171410.366505] [gra290:30246:0]          mpool.c:42   UCX  WARN  object 0xbfba180 was not returned to mpool ucp_requests
[1704171410.366525] [gra290:30246:0]          mpool.c:42   UCX  WARN  object 0xbfba340 was not returned to mpool ucp_requests
[1704171410.366538] [gra290:30246:0]          mpool.c:42   UCX  WARN  object 0xbfba500 was not returned to mpool ucp_requests
[1704171410.366549] [gra290:30246:0]          mpool.c:42   UCX  WARN  object 0xbfba6c0 was not returned to mpool ucp_requests
[1704171410.366565] [gra290:30246:0]          mpool.c:42   UCX  WARN  object 0xbfba880 was not returned to mpool ucp_requests
[1704171410.366610] [gra290:30246:0]          mpool.c:42   UCX  WARN  object 0xbfbaa40 was not returned to mpool ucp_requests
[1704171410.366620] [gra290:30246:0]          mpool.c:42   UCX  WARN  object 0xbfbac00 was not returned to mpool ucp_requests
[1704171410.366631] [gra290:30246:0]          mpool.c:42   UCX  WARN  object 0xbfbadc0 was not returned to mpool ucp_requests
[1704171410.366641] [gra290:30246:0]          mpool.c:42   UCX  WARN  object 0xbfbaf80 was not returned to mpool ucp_requests
[1704171410.366652] [gra290:30246:0]          mpool.c:42   UCX  WARN  object 0xbfbb140 was not returned to mpool ucp_requests
[1704171410.366862] [gra290:30248:0]          mpool.c:42   UCX  WARN  object 0xb803e80 was not returned to mpool ucp_requests
[1704171410.366996] [gra290:30248:0]          mpool.c:42   UCX  WARN  object 0xb804040 was not returned to mpool ucp_requests
[1704171410.367114] [gra290:30248:0]          mpool.c:42   UCX  WARN  object 0xb804200 was not returned to mpool ucp_requests
[1704171410.367230] [gra290:30248:0]          mpool.c:42   UCX  WARN  object 0xb8043c0 was not returned to mpool ucp_requests
[1704171410.367346] [gra290:30248:0]          mpool.c:42   UCX  WARN  object 0xb804580 was not returned to mpool ucp_requests
[1704171410.367462] [gra290:30248:0]          mpool.c:42   UCX  WARN  object 0xb804740 was not returned to mpool ucp_requests
[1704171410.367586] [gra290:30248:0]          mpool.c:42   UCX  WARN  object 0xb804900 was not returned to mpool ucp_requests
[1704171410.367722] [gra290:30248:0]          mpool.c:42   UCX  WARN  object 0xb804ac0 was not returned to mpool ucp_requests
[1704171410.367838] [gra290:30248:0]          mpool.c:42   UCX  WARN  object 0xb804c80 was not returned to mpool ucp_requests
[1704171410.367954] [gra290:30248:0]          mpool.c:42   UCX  WARN  object 0xb804e40 was not returned to mpool ucp_requests
[1704171410.368069] [gra290:30248:0]          mpool.c:42   UCX  WARN  object 0xb805000 was not returned to mpool ucp_requests
[1704171410.368185] [gra290:30248:0]          mpool.c:42   UCX  WARN  object 0xb8051c0 was not returned to mpool ucp_requests


           ************************************************************
           *        Program running with 8 parallel MPI-processes     *
           *              working on a common directory               *
           ************************************************************
-------------------------------------------------------------------------------
                                 ORCA SCF
-------------------------------------------------------------------------------

------------
SCF SETTINGS
------------
Hamiltonian:
 Density Functional     Method          .... DFT(GTOs)
 Exchange Functional    Exchange        .... WB97X-V
 Correlation Functional Correlation     .... WB97X-V
 Gradients option       PostSCFGGA      .... off
 Hybrid DFT is turned on
   Fraction HF Exchange ScalHFX         ....  0.167000
   Scaling of DF-GGA-X  ScalDFX         ....  0.000000
   Scaling of DF-GGA-C  ScalDFC         ....  1.000000
   Scaling of DF-LDA-C  ScalLDAC        ....  1.000000
   Perturbative correction              ....  0.000000
   Density functional embedding theory  .... OFF
 Long-range corrected/Screened/Range-Separated Hybrid DFT is turned on
   Amount of maximum screened exact exchange              ....  0.833000
   Range separation parameter mu (erf(mu*r12)/r12)        ....  0.300000
 RI-approximation to the Coulomb term is turned on
   Number of AuxJ basis functions       .... 1375
   RIJ-COSX (HFX calculated with COS-X)).... on


General Settings:
 Integral files         IntName         .... desprop_oMe-Fentanyl_exoNProt_92
 Hartree-Fock type      HFTyp           .... RHF
 Total Charge           Charge          ....    1
 Multiplicity           Mult            ....    1
 Number of Electrons    NEL             ....  160
 Basis Dimension        Dim             ....  844
 Nuclear Repulsion      ENuc            ....   1945.9417543019 Eh

Convergence Acceleration:
 DIIS                   CNVDIIS         .... on
   Start iteration      DIISMaxIt       ....    12
   Startup error        DIISStart       ....  0.200000
   # of expansion vecs  DIISMaxEq       ....     5
   Bias factor          DIISBfac        ....   1.050
   Max. coefficient     DIISMaxC        ....  10.000
 Trust-Rad. Augm. Hess. CNVTRAH         .... auto
   Auto Start mean grad. ratio tolernc. ....  1.125000
   Auto Start start iteration           ....    20
   Auto Start num. interpolation iter.  ....    10
   Max. Number of Micro iterations      ....    16
   Max. Number of Macro iterations      .... Maxiter - #DIIS iter
   Number of Davidson start vectors     ....     2
   Converg. threshold I  (grad. norm)   ....   1.000e-05
   Converg. threshold II (energy diff.) ....   1.000e-08
   Grad. Scal. Fac. for Micro threshold ....   0.100
   Minimum threshold for Micro iter.    ....   0.010
   NR start threshold (gradient norm)   ....   0.001
   Initial trust radius                 ....   0.400
   Minimum AH scaling param. (alpha)    ....   1.000
   Maximum AH scaling param. (alpha)    .... 1000.000
   Orbital update algorithm             .... Taylor
   White noise on init. David. guess    .... on
   Maximum white noise                  ....   0.010
   Quad. conv. algorithm                .... NR
 SOSCF                  CNVSOSCF        .... on
   Start iteration      SOSCFMaxIt      ....   150
   Startup grad/error   SOSCFStart      ....  0.003300
 Level Shifting         CNVShift        .... on
   Level shift para.    LevelShift      ....    0.2500
   Turn off err/grad.   ShiftErr        ....    0.0010
 Zerner damping         CNVZerner       .... off
 Static damping         CNVDamp         .... on
   Fraction old density DampFac         ....    0.7000
   Max. Damping (<1)    DampMax         ....    0.9800
   Min. Damping (>=0)   DampMin         ....    0.0000
   Turn off err/grad.   DampErr         ....    0.1000
 Fernandez-Rico         CNVRico         .... off

SCF Procedure:
 Maximum # iterations   MaxIter         ....   125
 SCF integral mode      SCFMode         .... Direct
   Integral package                     .... SHARK and LIBINT hybrid scheme
 Reset frequency        DirectResetFreq ....    20
 Integral Threshold     Thresh          ....  2.500e-11 Eh
 Primitive CutOff       TCut            ....  2.500e-12 Eh

Convergence Tolerance:
 Convergence Check Mode ConvCheckMode   .... Total+1el-Energy
 Convergence forced     ConvForced      .... 0
 Energy Change          TolE            ....  1.000e-08 Eh
 1-El. energy change                    ....  1.000e-05 Eh
 Orbital Gradient       TolG            ....  1.000e-05
 Orbital Rotation angle TolX            ....  1.000e-05
 DIIS Error             TolErr          ....  5.000e-07


Diagonalization of the overlap matrix:
Smallest eigenvalue                        ... 4.751e-06
Time for diagonalization                   ...    0.236 sec
Threshold for overlap eigenvalues          ... 1.000e-08
Number of eigenvalues below threshold      ... 0
Time for construction of square roots      ...    0.124 sec
Total time needed                          ...    0.367 sec

Time for model grid setup =    0.458 sec

------------------------------
INITIAL GUESS: MODEL POTENTIAL
------------------------------
Loading Hartree-Fock densities                     ... done
Calculating cut-offs                               ... done
Initializing the effective Hamiltonian             ... done
Setting up the integral package (SHARK)            ... done
Starting the Coulomb interaction                   ... done (   1.2 sec)
Reading the grid                                   ... done
Mapping shells                                     ... done
Starting the XC term evaluation                    ... done (   0.6 sec)
  promolecular density results
     # of electrons  =    160.989767852
     EX              =    -82.416853909
     EC              =     -6.578272095
     EX+EC           =    -88.995126004
Transforming the Hamiltonian                       ... done (   0.1 sec)
Diagonalizing the Hamiltonian                      ... done (   0.2 sec)
Back transforming the eigenvectors                 ... done (   0.0 sec)
Now organizing SCF variables                       ... done
                      ------------------
                      INITIAL GUESS DONE (   2.6 sec)
                      ------------------
-------------------
DFT GRID GENERATION
-------------------

General Integration Accuracy     IntAcc      ... 4.959
Radial Grid Type                 RadialGrid  ... OptM3 with GC (2021)
Angular Grid (max. ang.)         AngularGrid ... 6 (Lebedev-590)
Angular grid pruning method      GridPruning ... 4 (adaptive)
Weight generation scheme         WeightScheme... Becke
Basis function cutoff            BFCut       ... 1.0000e-11
Integration weight cutoff        WCut        ... 1.0000e-14
Angular grids for H and He will be reduced by one unit
Partially contracted basis set               ... off
Rotationally invariant grid construction     ... off

Total number of grid points                  ...   533790
Total number of batches                      ...     8364
Average number of points per batch           ...       63
Average number of grid points per atom       ...    10894
Time for grid setup =    7.538 sec

--------------------
COSX GRID GENERATION
--------------------

GRIDX 1
-------
General Integration Accuracy     IntAcc      ... 4.020
Radial Grid Type                 RadialGrid  ... OptM3 with GC (2021)
Angular Grid (max. ang.)         AngularGrid ... 2 (Lebedev-110)
Angular grid pruning method      GridPruning ... 4 (adaptive)
Weight generation scheme         WeightScheme... Becke
Basis function cutoff            BFCut       ... 1.0000e-11
Integration weight cutoff        WCut        ... 1.0000e-14
Angular grids for H and He will be reduced by one unit
Partially contracted basis set               ... on
Rotationally invariant grid construction     ... off

Total number of grid points                  ...    57271
Total number of batches                      ...      922
Average number of points per batch           ...       62
Average number of grid points per atom       ...     1169
UseSFitting                                  ... on

GRIDX 2
-------
General Integration Accuracy     IntAcc      ... 4.338
Radial Grid Type                 RadialGrid  ... OptM3 with GC (2021)
Angular Grid (max. ang.)         AngularGrid ... 3 (Lebedev-194)
Angular grid pruning method      GridPruning ... 4 (adaptive)
Weight generation scheme         WeightScheme... Becke
Basis function cutoff            BFCut       ... 1.0000e-11
Integration weight cutoff        WCut        ... 1.0000e-14
Angular grids for H and He will be reduced by one unit
Partially contracted basis set               ... on
Rotationally invariant grid construction     ... off

Total number of grid points                  ...   124170
Total number of batches                      ...     1965
Average number of points per batch           ...       63
Average number of grid points per atom       ...     2534
UseSFitting                                  ... on

GRIDX 3
-------
General Integration Accuracy     IntAcc      ... 4.871
Radial Grid Type                 RadialGrid  ... OptM3 with GC (2021)
Angular Grid (max. ang.)         AngularGrid ... 4 (Lebedev-302)
Angular grid pruning method      GridPruning ... 4 (adaptive)
Weight generation scheme         WeightScheme... Becke
Basis function cutoff            BFCut       ... 1.0000e-11
Integration weight cutoff        WCut        ... 1.0000e-14
Angular grids for H and He will be reduced by one unit
Partially contracted basis set               ... on
Rotationally invariant grid construction     ... off

Total number of grid points                  ...   237076
Total number of batches                      ...     3732
Average number of points per batch           ...       63
Average number of grid points per atom       ...     4838
UseSFitting                                  ... on

Time for X-Grid setup             =    5.382 sec

--------------
SCF ITERATIONS
--------------
ITER       Energy         Delta-E        Max-DP      RMS-DP      [F,P]     Damp
               ***  Starting incremental Fock matrix formation  ***
  0   -888.1836286941   0.000000000000 0.05923050  0.00064178  0.3107795 0.7000
  1   -888.2383519141  -0.054723220005 0.05132091  0.00056803  0.2099012 0.7000
                               ***Turning on DIIS***
  2   -888.2709127922  -0.032560878058 0.04149546  0.00043908  0.1430533 0.7000
  3   -888.2923183136  -0.021405521400 0.11954706  0.00117296  0.0981268 0.0000
  4   -888.3432363533  -0.050918039765 0.01632303  0.00015516  0.0056063 0.0000
  5   -888.3436144187  -0.000378065410 0.00572548  0.00006561  0.0034788 0.0000
                      *** Initiating the SOSCF procedure ***
                           *** Shutting down DIIS ***
                      *** Re-Reading the Fockian *** 
                      *** Removing any level shift *** 
ITER      Energy       Delta-E        Grad      Rot      Max-DP    RMS-DP
  6   -888.34370635  -0.0000919352  0.000336  0.000336  0.005043  0.000057
               *** Restarting incremental Fock matrix formation ***
  7   -888.34372964  -0.0000232844  0.000134  0.000321  0.000920  0.000010
  8   -888.34373038  -0.0000007422  0.000079  0.000160  0.000555  0.000006
  9   -888.34373084  -0.0000004579  0.000017  0.000062  0.000523  0.000006
 10   -888.34373084  -0.0000000042  0.000012  0.000031  0.000244  0.000003
 11   -888.34373088  -0.0000000406  0.000003  0.000009  0.000385  0.000004
                  ***Gradient check signals convergence***
              ***Rediagonalizing the Fockian in SOSCF/NRSCF***

               *****************************************************
               *                     SUCCESS                       *
               *           SCF CONVERGED AFTER  12 CYCLES          *
               *****************************************************

Old exchange energy                            =    -41.941123127 Eh
New exchange energy                            =    -41.941118001 Eh
Exchange energy change after final integration =      0.000005127 Eh
Total energy after final integration           =   -888.343725764 Eh
Final COS-X integration done in                =   151.273 sec

----------------
TOTAL SCF ENERGY
----------------

Total Energy       :         -888.34372576 Eh          -24173.06171 eV

Components:
Nuclear Repulsion  :         1945.94175430 Eh           52951.76715 eV
Electronic Energy  :        -2834.28548007 Eh          -77124.82886 eV
One Electron Energy:        -5045.53169382 Eh         -137295.89738 eV
Two Electron Energy:         2211.24621375 Eh           60171.06851 eV
Max COSX asymmetry :            0.00000024 Eh               0.00001 eV

Virial components:
Potential Energy   :        -1772.71378937 Eh          -48237.99458 eV
Kinetic Energy     :          884.37006361 Eh           24064.93287 eV
Virial Ratio       :            2.00449321


DFT components:
N(Alpha)           :       79.999973758617 electrons
N(Beta)            :       79.999973758617 electrons
N(Total)           :      159.999947517234 electrons
E(X)               :      -84.454561638424 Eh       
E(C)               :       -6.582375160652 Eh       
E(XC)              :      -91.036936799076 Eh       
DFET-embed. en.    :        0.000000000000 Eh       

---------------
SCF CONVERGENCE
---------------

  Last Energy change         ...   -7.6955e-09  Tolerance :   1.0000e-08
  Last MAX-Density change    ...    1.6653e-15  Tolerance :   1.0000e-07
  Last RMS-Density change    ...    1.2929e-17  Tolerance :   5.0000e-09
  Last Orbital Gradient      ...    1.1679e-06  Tolerance :   1.0000e-05
[...]
 48:    862.40   0.000137    0.69  0.000050  ( 0.005358 -0.002920  0.003538)
 49:    883.80   0.003595   18.17  0.001270  (-0.030281 -0.000420 -0.018772)
 50:    894.16   0.000571    2.89  0.000199  ( 0.007713 -0.000640  0.011809)
 51:    905.59   0.000152    0.77  0.000052  ( 0.000899 -0.006012 -0.003937)
 52:    923.38   0.000265    1.34  0.000090  ( 0.006041 -0.001267  0.007179)
 53:    940.14   0.002016   10.19  0.000669  (-0.022018  0.008522 -0.010578)
 54:    953.20   0.002171   10.97  0.000711  ( 0.021892  0.002420  0.015018)
 55:    975.64   0.000591    2.99  0.000189  ( 0.013130  0.001351  0.003842)
 56:    987.58   0.000480    2.43  0.000152  (-0.003277  0.011867  0.000400)
 57:    992.58   0.000039    0.20  0.000012  (-0.001676  0.000190  0.003079)
 58:   1016.20   0.000393    1.99  0.000121  (-0.006263 -0.001334  0.008929)
 59:   1019.70   0.002786   14.08  0.000853  ( 0.021764 -0.019355  0.002107)
 60:   1025.18   0.000213    1.08  0.000065  (-0.000708  0.007798  0.001878)
 61:   1026.19   0.001687    8.53  0.000513  (-0.001549  0.022408 -0.002937)
 62:   1031.19   0.000087    0.44  0.000026  (-0.001415  0.001205  0.004785)
 63:   1036.32   0.000006    0.03  0.000002  (-0.000621  0.000957  0.000676)
 64:   1043.95   0.000004    0.02  0.000001  ( 0.000474 -0.000903  0.000209)
 65:   1046.50   0.001397    7.06  0.000417  (-0.016220 -0.002179  0.012199)
 66:   1068.33   0.000265    1.34  0.000077  (-0.007542 -0.003739 -0.002555)
 67:   1071.17   0.003983   20.13  0.001161  ( 0.029752 -0.007601  0.014750)
 68:   1073.34   0.000318    1.61  0.000093  (-0.000974  0.008469 -0.004462)
 69:   1088.73   0.000768    3.88  0.000220  (-0.008489  0.007280  0.009753)
 70:   1114.69   0.000377    1.91  0.000106  (-0.000068  0.008774 -0.005345)
 71:   1128.57   0.003352   16.94  0.000927  (-0.022929 -0.007520 -0.018561)
 72:   1132.34   0.007526   38.03  0.002074  (-0.045267 -0.004187 -0.002735)
 73:   1156.67   0.001095    5.53  0.000295  (-0.015873  0.003659  0.005474)
 74:   1168.95   0.001625    8.21  0.000434  (-0.004990 -0.005389  0.019493)
 75:   1183.70   0.000142    0.72  0.000037  (-0.000854  0.000168 -0.006049)
 76:   1190.00   0.000440    2.22  0.000115  ( 0.007183  0.004661  0.006490)
 77:   1205.63   0.006617   33.44  0.001713  (-0.013835 -0.037245 -0.011581)
 78:   1213.78   0.000301    1.52  0.000077  ( 0.008015 -0.003560  0.000759)
 79:   1217.06   0.001911    9.66  0.000490  ( 0.013452 -0.017069  0.004206)
 80:   1218.49   0.000941    4.76  0.000241  (-0.008731 -0.008519 -0.009606)
 81:   1220.42   0.001184    5.99  0.000303  (-0.010670 -0.013528  0.002450)
 82:   1243.42   0.000219    1.11  0.000055  ( 0.001507  0.005782  0.004384)
 83:   1264.88   0.001817    9.18  0.000448  ( 0.010468 -0.011919 -0.014022)
 84:   1271.34   0.000664    3.35  0.000163  ( 0.006505 -0.007521  0.007999)
 85:   1280.93   0.000850    4.29  0.000207  (-0.012577  0.003727 -0.005914)
 86:   1288.83   0.003060   15.46  0.000741  ( 0.021947 -0.015311  0.004982)
 87:   1303.51   0.000308    1.56  0.000074  (-0.004610 -0.002092  0.006939)
 88:   1318.32   0.000518    2.62  0.000123  (-0.005053 -0.003654 -0.009152)
 89:   1323.07   0.001998   10.10  0.000471  ( 0.021592 -0.001762  0.001351)
 90:   1326.97   0.002847   14.39  0.000670  ( 0.017282 -0.004203  0.018793)
 91:   1341.27   0.000376    1.90  0.000087  ( 0.005544 -0.006364 -0.004020)
 92:   1356.82   0.001859    9.39  0.000427  ( 0.014853 -0.014059  0.003031)
 93:   1366.23   0.000307    1.55  0.000070  (-0.005297 -0.001140  0.006383)
 94:   1377.24   0.001390    7.02  0.000315  ( 0.005360 -0.008096  0.014853)
 95:   1384.06   0.001866    9.43  0.000421  ( 0.012634 -0.016041 -0.001929)
 96:   1395.11   0.000751    3.79  0.000168  ( 0.003416 -0.012380  0.001742)
 97:   1401.55   0.001337    6.76  0.000298  ( 0.007231  0.013094  0.008596)
 98:   1413.34   0.012345   62.39  0.002726  (-0.051341  0.007992 -0.005101)
 99:   1423.41   0.006874   34.74  0.001507  ( 0.027857 -0.020890  0.017163)
100:   1432.40   0.003175   16.05  0.000692  ( 0.019369 -0.009178  0.015242)
101:   1438.19   0.002980   15.06  0.000647  (-0.001290  0.024315  0.007335)
102:   1447.14   0.002210   11.17  0.000477  ( 0.017791 -0.011287  0.005710)
103:   1489.20   0.000578    2.92  0.000121  ( 0.006046  0.006725  0.006265)
104:   1497.61   0.003034   15.33  0.000632  ( 0.003065 -0.012727  0.021467)
105:   1503.01   0.001333    6.74  0.000277  (-0.001879 -0.015454 -0.005863)
106:   1503.72   0.000656    3.31  0.000136  ( 0.000529  0.010683 -0.004659)
107:   1507.27   0.001554    7.85  0.000322  (-0.003600 -0.017151 -0.003826)
108:   1508.63   0.001873    9.47  0.000387  (-0.007575 -0.008652  0.015976)
109:   1517.26   0.000452    2.28  0.000093  (-0.006527 -0.006899 -0.001646)
110:   1520.90   0.003953   19.98  0.000811  (-0.014892  0.004543  0.023848)
111:   1526.79   0.003100   15.67  0.000634  ( 0.022949  0.005947  0.008459)
112:   1540.25   0.006212   31.39  0.001259  (-0.031935  0.001076 -0.015413)
113:   1553.48   0.002778   14.04  0.000558  ( 0.020172  0.000793  0.012265)
114:   1560.88   0.004958   25.06  0.000991  ( 0.017902 -0.000030 -0.025898)
115:   1665.85   0.000234    1.18  0.000044  (-0.003791  0.000423  0.005407)
116:   1670.40   0.015604   78.86  0.002915  ( 0.016909  0.049679 -0.012697)
117:   1679.09   0.005246   26.51  0.000975  ( 0.008362  0.027852 -0.011368)
118:   1689.32   0.001692    8.55  0.000313  ( 0.011260 -0.007775  0.011194)
119:   1709.65   0.000673    3.40  0.000123  (-0.005227 -0.009768  0.000251)
120:   3014.52   0.016077   81.25  0.001664  (-0.037945  0.007097 -0.013195)
121:   3017.16   0.002484   12.55  0.000257  (-0.003558 -0.001057  0.015593)
122:   3021.87   0.023470  118.61  0.002424  (-0.040162 -0.012280 -0.025689)
123:   3056.69   0.002951   14.91  0.000301  ( 0.013329  0.002382 -0.010861)
124:   3072.32   0.065876  332.91  0.006691  ( 0.065712  0.048546  0.004049)
125:   3079.91   0.012816   64.76  0.001299  (-0.026127 -0.017813 -0.017279)
126:   3091.14   0.000941    4.76  0.000095  (-0.008636 -0.004467 -0.000713)
127:   3100.34   0.000767    3.88  0.000077  ( 0.007932 -0.000088 -0.003785)
128:   3105.88   0.002199   11.11  0.000221  (-0.006231 -0.012304  0.005542)
129:   3108.99   0.003394   17.15  0.000341  ( 0.014653 -0.007580 -0.008280)
130:   3118.15   0.001605    8.11  0.000161  ( 0.002413 -0.012432  0.000500)
131:   3133.45   0.001927    9.74  0.000192  (-0.008196  0.007364  0.008396)
132:   3136.37   0.001242    6.28  0.000124  (-0.007488  0.008143 -0.001098)
133:   3148.53   0.000978    4.94  0.000097  (-0.005436  0.007480  0.003386)
134:   3150.32   0.002176   11.00  0.000216  (-0.013839  0.001269  0.004738)
135:   3167.27   0.002037   10.29  0.000201  (-0.002215 -0.009480  0.010291)
136:   3168.75   0.000872    4.40  0.000086  (-0.008654 -0.001243 -0.003066)
137:   3188.21   0.000738    3.73  0.000072  ( 0.004359  0.001079  0.007219)
138:   3189.86   0.000562    2.84  0.000055  (-0.006868  0.001645  0.002265)
139:   3203.68   0.000413    2.09  0.000040  (-0.006240  0.000630  0.000949)
140:   3208.27   0.000300    1.52  0.000029  (-0.003671 -0.002312 -0.003221)
141:   3213.31   0.001107    5.59  0.000107  ( 0.004839 -0.002150 -0.008913)
142:   3213.91   0.000232    1.17  0.000023  ( 0.004252  0.002043 -0.000533)
143:   3224.13   0.000768    3.88  0.000074  ( 0.007655  0.003355  0.002110)
144:   3225.29   0.000575    2.90  0.000056  ( 0.007373  0.000762  0.000811)
145:   3236.24   0.000145    0.73  0.000014  ( 0.001495 -0.001188 -0.003211)
146:   3466.91   0.009155   46.27  0.000824  (-0.002472  0.018198 -0.022063)

* The epsilon (eps) is given for a Dirac delta lineshape.
** The dipole moment derivative (T) already includes vibrational overlap.

The first frequency considered to be a vibration is 6
The total number of vibrations considered is 141


--------------------------
THERMOCHEMISTRY AT 298.15K
--------------------------

Temperature         ... 298.15 K
Pressure            ... 1.00 atm
Total Mass          ... 295.45 AMU

Throughout the following assumptions are being made:
  (1) The electronic state is orbitally nondegenerate
  (2) There are no thermally accessible electronically excited states
  (3) Hindered rotations indicated by low frequency modes are not
      treated as such but are treated as vibrations and this may
      cause some error
  (4) All equations used are the standard statistical mechanics
      equations for an ideal gas
  (5) All vibrations are strictly harmonic

freq.      33.69  E(vib)   ...       0.55 
freq.      43.08  E(vib)   ...       0.53 
freq.      49.34  E(vib)   ...       0.52 
freq.      84.23  E(vib)   ...       0.48 
freq.      87.63  E(vib)   ...       0.48 
freq.     103.55  E(vib)   ...       0.46 
freq.     118.44  E(vib)   ...       0.44 
freq.     120.10  E(vib)   ...       0.44 
freq.     135.10  E(vib)   ...       0.42 
freq.     172.05  E(vib)   ...       0.38 
freq.     181.61  E(vib)   ...       0.37 
freq.     204.47  E(vib)   ...       0.35 
freq.     232.71  E(vib)   ...       0.32 
freq.     275.74  E(vib)   ...       0.28 
freq.     286.98  E(vib)   ...       0.27 
freq.     307.25  E(vib)   ...       0.26 
freq.     337.87  E(vib)   ...       0.24 
freq.     360.56  E(vib)   ...       0.22 
freq.     371.59  E(vib)   ...       0.21 
freq.     387.11  E(vib)   ...       0.20 
freq.     423.51  E(vib)   ...       0.18 
freq.     437.60  E(vib)   ...       0.17 
freq.     453.26  E(vib)   ...       0.16 
freq.     469.21  E(vib)   ...       0.16 
freq.     497.87  E(vib)   ...       0.14 
freq.     510.13  E(vib)   ...       0.14 
freq.     522.30  E(vib)   ...       0.13 
freq.     536.89  E(vib)   ...       0.12 
freq.     567.31  E(vib)   ...       0.11 
freq.     618.23  E(vib)   ...       0.09 
freq.     631.22  E(vib)   ...       0.09 
freq.     637.90  E(vib)   ...       0.09 
freq.     720.40  E(vib)   ...       0.07 
freq.     734.06  E(vib)   ...       0.06 
freq.     740.48  E(vib)   ...       0.06 
freq.     775.71  E(vib)   ...       0.05 
freq.     784.23  E(vib)   ...       0.05 
freq.     790.38  E(vib)   ...       0.05 
freq.     793.17  E(vib)   ...       0.05 
freq.     802.94  E(vib)   ...       0.05 
freq.     830.34  E(vib)   ...       0.04 
freq.     849.58  E(vib)   ...       0.04 
freq.     862.40  E(vib)   ...       0.04 
freq.     883.80  E(vib)   ...       0.04 
freq.     894.16  E(vib)   ...       0.03 
freq.     905.59  E(vib)   ...       0.03 
freq.     923.38  E(vib)   ...       0.03 
freq.     940.14  E(vib)   ...       0.03 
freq.     953.20  E(vib)   ...       0.03 
freq.     975.64  E(vib)   ...       0.03 
freq.     987.58  E(vib)   ...       0.02 
freq.     992.58  E(vib)   ...       0.02 
freq.    1016.20  E(vib)   ...       0.02 
freq.    1019.70  E(vib)   ...       0.02 
freq.    1025.18  E(vib)   ...       0.02 
freq.    1026.19  E(vib)   ...       0.02 
freq.    1031.19  E(vib)   ...       0.02 
freq.    1036.32  E(vib)   ...       0.02 
freq.    1043.95  E(vib)   ...       0.02 
freq.    1046.50  E(vib)   ...       0.02 
freq.    1068.33  E(vib)   ...       0.02 
freq.    1071.17  E(vib)   ...       0.02 
freq.    1073.34  E(vib)   ...       0.02 
freq.    1088.73  E(vib)   ...       0.02 
freq.    1114.69  E(vib)   ...       0.01 
freq.    1128.57  E(vib)   ...       0.01 
freq.    1132.34  E(vib)   ...       0.01 
freq.    1156.67  E(vib)   ...       0.01 
freq.    1168.95  E(vib)   ...       0.01 
freq.    1183.70  E(vib)   ...       0.01 
freq.    1190.00  E(vib)   ...       0.01 
freq.    1205.63  E(vib)   ...       0.01 
freq.    1213.78  E(vib)   ...       0.01 
freq.    1217.06  E(vib)   ...       0.01 
freq.    1218.49  E(vib)   ...       0.01 
freq.    1220.42  E(vib)   ...       0.01 
freq.    1243.42  E(vib)   ...       0.01 
freq.    1264.88  E(vib)   ...       0.01 
freq.    1271.34  E(vib)   ...       0.01 
freq.    1280.93  E(vib)   ...       0.01 
freq.    1288.83  E(vib)   ...       0.01 
freq.    1303.51  E(vib)   ...       0.01 
freq.    1318.32  E(vib)   ...       0.01 
freq.    1323.07  E(vib)   ...       0.01 
freq.    1326.97  E(vib)   ...       0.01 
freq.    1341.27  E(vib)   ...       0.01 
freq.    1356.82  E(vib)   ...       0.01 
freq.    1366.23  E(vib)   ...       0.01 
freq.    1377.24  E(vib)   ...       0.01 
freq.    1384.06  E(vib)   ...       0.00 
freq.    1395.11  E(vib)   ...       0.00 
freq.    1401.55  E(vib)   ...       0.00 
freq.    1413.34  E(vib)   ...       0.00 
freq.    1423.41  E(vib)   ...       0.00 
freq.    1432.40  E(vib)   ...       0.00 
freq.    1438.19  E(vib)   ...       0.00 
freq.    1447.14  E(vib)   ...       0.00 
freq.    1489.20  E(vib)   ...       0.00 
freq.    1497.61  E(vib)   ...       0.00 
freq.    1503.01  E(vib)   ...       0.00 
freq.    1503.72  E(vib)   ...       0.00 
freq.    1507.27  E(vib)   ...       0.00 
freq.    1508.63  E(vib)   ...       0.00 
freq.    1517.26  E(vib)   ...       0.00 
freq.    1520.90  E(vib)   ...       0.00 
freq.    1526.79  E(vib)   ...       0.00 
freq.    1540.25  E(vib)   ...       0.00 
freq.    1553.48  E(vib)   ...       0.00 
freq.    1560.88  E(vib)   ...       0.00 
freq.    1665.85  E(vib)   ...       0.00 
freq.    1670.40  E(vib)   ...       0.00 
freq.    1679.09  E(vib)   ...       0.00 
freq.    1689.32  E(vib)   ...       0.00 
freq.    1709.65  E(vib)   ...       0.00 
freq.    3014.52  E(vib)   ...       0.00 
freq.    3017.16  E(vib)   ...       0.00 
freq.    3021.87  E(vib)   ...       0.00 
freq.    3056.69  E(vib)   ...       0.00 
freq.    3072.32  E(vib)   ...       0.00 
freq.    3079.91  E(vib)   ...       0.00 
freq.    3091.14  E(vib)   ...       0.00 
freq.    3100.34  E(vib)   ...       0.00 
freq.    3105.88  E(vib)   ...       0.00 
freq.    3108.99  E(vib)   ...       0.00 
freq.    3118.15  E(vib)   ...       0.00 
freq.    3133.45  E(vib)   ...       0.00 
freq.    3136.37  E(vib)   ...       0.00 
freq.    3148.53  E(vib)   ...       0.00 
freq.    3150.32  E(vib)   ...       0.00 
freq.    3167.27  E(vib)   ...       0.00 
freq.    3168.75  E(vib)   ...       0.00 
freq.    3188.21  E(vib)   ...       0.00 
freq.    3189.86  E(vib)   ...       0.00 
freq.    3203.68  E(vib)   ...       0.00 
freq.    3208.27  E(vib)   ...       0.00 
freq.    3213.31  E(vib)   ...       0.00 
freq.    3213.91  E(vib)   ...       0.00 
freq.    3224.13  E(vib)   ...       0.00 
freq.    3225.29  E(vib)   ...       0.00 
freq.    3236.24  E(vib)   ...       0.00 
freq.    3466.91  E(vib)   ...       0.00 

------------
INNER ENERGY
------------

The inner energy is: U= E(el) + E(ZPE) + E(vib) + E(rot) + E(trans)
    E(el)   - is the total energy from the electronic structure calculation
              = E(kin-el) + E(nuc-el) + E(el-el) + E(nuc-nuc)
    E(ZPE)  - the the zero temperature vibrational energy from the frequency calculation
    E(vib)  - the the finite temperature correction to E(ZPE) due to population
              of excited vibrational states
    E(rot)  - is the rotational thermal energy
    E(trans)- is the translational thermal energy

Summary of contributions to the inner energy U:
Electronic energy                ...   -888.46959023 Eh
Zero point energy                ...      0.44227937 Eh     277.53 kcal/mol
Thermal vibrational correction   ...      0.01653577 Eh      10.38 kcal/mol
Thermal rotational correction    ...      0.00141627 Eh       0.89 kcal/mol
Thermal translational correction ...      0.00141627 Eh       0.89 kcal/mol
-----------------------------------------------------------------------
Total thermal energy                   -888.00794255 Eh


Summary of corrections to the electronic energy:
(perhaps to be used in another calculation)
Total thermal correction                  0.01936831 Eh      12.15 kcal/mol
Non-thermal (ZPE) correction              0.44227937 Eh     277.53 kcal/mol
-----------------------------------------------------------------------
Total correction                          0.46164768 Eh     289.69 kcal/mol


--------
ENTHALPY
--------

The enthalpy is H = U + kB*T
                kB is Boltzmann's constant
Total free energy                 ...   -888.00794255 Eh 
Thermal Enthalpy correction       ...      0.00094421 Eh       0.59 kcal/mol
-----------------------------------------------------------------------
Total Enthalpy                    ...   -888.00699834 Eh


Note: Only C1 symmetry has been detected, increase convergence thresholds 
      if your molecule has a higher symmetry. Symmetry factor of 1.0 is   
      used for the rotational entropy correction. 
 

Note: Rotational entropy computed according to Herzberg 
Infrared and Raman Spectra, Chapter V,1, Van Nostrand Reinhold, 1945 
Point Group:  C1, Symmetry Number:   1  
Rotational constants in cm-1:     0.013816     0.008769     0.007410 

Vibrational entropy computed according to the QRRHO of S. Grimme
Chem.Eur.J. 2012 18 9955


-------
ENTROPY
-------

The entropy contributions are T*S = T*(S(el)+S(vib)+S(rot)+S(trans))
     S(el)   - electronic entropy
     S(vib)  - vibrational entropy
     S(rot)  - rotational entropy
     S(trans)- translational entropy
The entropies will be listed as multiplied by the temperature to get
units of energy

Electronic entropy                ...      0.00000000 Eh      0.00 kcal/mol
Vibrational entropy               ...      0.02866575 Eh     17.99 kcal/mol
Rotational entropy                ...      0.01608394 Eh     10.09 kcal/mol
Translational entropy             ...      0.02040553 Eh     12.80 kcal/mol
-----------------------------------------------------------------------
Final entropy term                ...      0.06515522 Eh     40.89 kcal/mol

In case the symmetry of your molecule has not been determined correctly
or in case you have a reason to use a different symmetry number we print 
out the resulting rotational entropy values for sn=1,12 :
 --------------------------------------------------------
|  sn= 1 | S(rot)=       0.01608394 Eh     10.09 kcal/mol|
|  sn= 2 | S(rot)=       0.01542948 Eh      9.68 kcal/mol|
|  sn= 3 | S(rot)=       0.01504665 Eh      9.44 kcal/mol|
|  sn= 4 | S(rot)=       0.01477503 Eh      9.27 kcal/mol|
|  sn= 5 | S(rot)=       0.01456434 Eh      9.14 kcal/mol|
|  sn= 6 | S(rot)=       0.01439220 Eh      9.03 kcal/mol|
|  sn= 7 | S(rot)=       0.01424665 Eh      8.94 kcal/mol|
|  sn= 8 | S(rot)=       0.01412057 Eh      8.86 kcal/mol|
|  sn= 9 | S(rot)=       0.01400936 Eh      8.79 kcal/mol|
|  sn=10 | S(rot)=       0.01390988 Eh      8.73 kcal/mol|
|  sn=11 | S(rot)=       0.01381989 Eh      8.67 kcal/mol|
|  sn=12 | S(rot)=       0.01373774 Eh      8.62 kcal/mol|
 --------------------------------------------------------


-------------------
GIBBS FREE ENERGY
-------------------

The Gibbs free energy is G = H - T*S

Total enthalpy                    ...   -888.00699834 Eh 
Total entropy correction          ...     -0.06515522 Eh    -40.89 kcal/mol
-----------------------------------------------------------------------
Final Gibbs free energy         ...   -888.07215356 Eh

For completeness - the Gibbs free energy minus the electronic energy
G-E(el)                           ...      0.39743667 Eh    249.39 kcal/mol


Timings for individual modules:

Sum of individual times         ...    26244.022 sec (= 437.400 min)
GTO integral calculation        ...       40.419 sec (=   0.674 min)   0.2 %
SCF iterations                  ...    11104.520 sec (= 185.075 min)  42.3 %
SCF Gradient evaluation         ...     3168.815 sec (=  52.814 min)  12.1 %
Geometry relaxation             ...        3.913 sec (=   0.065 min)   0.0 %
Analytical frequency calculation...     9761.121 sec (= 162.685 min)  37.2 %
CHELPG charge generation        ...     2165.234 sec (=  36.087 min)   8.3 %
                             ****ORCA TERMINATED NORMALLY****
TOTAL RUN TIME: 0 days 7 hours 17 minutes 43 seconds 721 msec
