
Lmod is automatically replacing "intel/2020.1.217" with "gcc/10.3.0".


The following have been reloaded with a version change:
  1) gcccore/.9.3.0 => gcccore/.10.3.0        3) openmpi/4.0.3 => openmpi/4.1.1
  2) libfabric/1.10.1 => libfabric/1.12.1     4) ucx/1.8.0 => ucx/1.9.0

To execute ORCA, run: 
   ${EBROOTORCA}/orca orca.inp > orca.out
cp: cannot stat '/project/6006388/cieritan/Fentanyl_analogs/Despropionyl_ortho-Methylfentanyl/exoN-Prot/DFT/*.hess': No such file or directory
cp: cannot stat '/project/6006388/cieritan/Fentanyl_analogs/Despropionyl_ortho-Methylfentanyl/exoN-Prot/DFT/*.gbw': No such file or directory

                                 *****************
                                 * O   R   C   A *
                                 *****************

                                            #,                                       
                                            ###                                      
                                            ####                                     
                                            #####                                    
                                            ######                                   
                                           ########,                                 
                                     ,,################,,,,,                         
                               ,,#################################,,                 
                          ,,##########################################,,             
                       ,#########################################, ''#####,          
                    ,#############################################,,   '####,        
                  ,##################################################,,,,####,       
                ,###########''''           ''''###############################       
              ,#####''   ,,,,##########,,,,          '''####'''          '####       
            ,##' ,,,,###########################,,,                        '##       
           ' ,,###''''                  '''############,,,                           
         ,,##''                                '''############,,,,        ,,,,,,###''
      ,#''                                            '''#######################'''  
     '                                                          ''''####''''         
             ,#######,   #######,   ,#######,      ##                                
            ,#'     '#,  ##    ##  ,#'     '#,    #''#        ######   ,####,        
            ##       ##  ##   ,#'  ##            #'  '#       #        #'  '#        
            ##       ##  #######   ##           ,######,      #####,   #    #        
            '#,     ,#'  ##    ##  '#,     ,#' ,#      #,         ##   #,  ,#        
             '#######'   ##     ##  '#######'  #'      '#     #####' # '####'        



                  #######################################################
                  #                        -***-                        #
                  #          Department of theory and spectroscopy      #
                  #    Directorship and core code : Frank Neese         #
                  #        Max Planck Institute fuer Kohlenforschung    #
                  #                Kaiser Wilhelm Platz 1               #
                  #                 D-45470 Muelheim/Ruhr               #
                  #                      Germany                        #
                  #                                                     #
                  #                  All rights reserved                #
                  #                        -***-                        #
                  #######################################################


                         Program Version 5.0.4 -  RELEASE  -


 With contributions from (in alphabetic order):
   Daniel Aravena         : Magnetic Suceptibility
   Michael Atanasov       : Ab Initio Ligand Field Theory (pilot matlab implementation)
   Alexander A. Auer      : GIAO ZORA, VPT2 properties, NMR spectrum
   Ute Becker             : Parallelization
   Giovanni Bistoni       : ED, misc. LED, open-shell LED, HFLD
   Martin Brehm           : Molecular dynamics
   Dmytro Bykov           : SCF Hessian
   Vijay G. Chilkuri      : MRCI spin determinant printing, contributions to CSF-ICE
   Dipayan Datta          : RHF DLPNO-CCSD density
   Achintya Kumar Dutta   : EOM-CC, STEOM-CC
   Dmitry Ganyushin       : Spin-Orbit,Spin-Spin,Magnetic field MRCI
   Miquel Garcia          : C-PCM and meta-GGA Hessian, CC/C-PCM, Gaussian charge scheme
   Yang Guo               : DLPNO-NEVPT2, F12-NEVPT2, CIM, IAO-localization
   Andreas Hansen         : Spin unrestricted coupled pair/coupled cluster methods
   Benjamin Helmich-Paris : MC-RPA, TRAH-SCF, COSX integrals
   Lee Huntington         : MR-EOM, pCC
   Robert Izsak           : Overlap fitted RIJCOSX, COSX-SCS-MP3, EOM
   Marcus Kettner         : VPT2
   Christian Kollmar      : KDIIS, OOCD, Brueckner-CCSD(T), CCSD density, CASPT2, CASPT2-K
   Simone Kossmann        : Meta GGA functionals, TD-DFT gradient, OOMP2, MP2 Hessian
   Martin Krupicka        : Initial AUTO-CI
   Lucas Lang             : DCDCAS
   Marvin Lechner         : AUTO-CI (C++ implementation), FIC-MRCC
   Dagmar Lenk            : GEPOL surface, SMD
   Dimitrios Liakos       : Extrapolation schemes; Compound Job, initial MDCI parallelization
   Dimitrios Manganas     : Further ROCIS development; embedding schemes
   Dimitrios Pantazis     : SARC Basis sets
   Anastasios Papadopoulos: AUTO-CI, single reference methods and gradients
   Taras Petrenko         : DFT Hessian,TD-DFT gradient, ASA, ECA, R-Raman, ABS, FL, XAS/XES, NRVS
   Peter Pinski           : DLPNO-MP2, DLPNO-MP2 Gradient
   Christoph Reimann      : Effective Core Potentials
   Marius Retegan         : Local ZFS, SOC
   Christoph Riplinger    : Optimizer, TS searches, QM/MM, DLPNO-CCSD(T), (RO)-DLPNO pert. Triples
   Tobias Risthaus        : Range-separated hybrids, TD-DFT gradient, RPA, STAB
   Michael Roemelt        : Original ROCIS implementation
   Masaaki Saitow         : Open-shell DLPNO-CCSD energy and density
   Barbara Sandhoefer     : DKH picture change effects
   Avijit Sen             : IP-ROCIS
   Kantharuban Sivalingam : CASSCF convergence, NEVPT2, FIC-MRCI
   Bernardo de Souza      : ESD, SOC TD-DFT
   Georgi Stoychev        : AutoAux, RI-MP2 NMR, DLPNO-MP2 response
   Willem Van den Heuvel  : Paramagnetic NMR
   Boris Wezisla          : Elementary symmetry handling
   Frank Wennmohs         : Technical directorship


 We gratefully acknowledge several colleagues who have allowed us to
 interface, adapt or use parts of their codes:
   Stefan Grimme, W. Hujo, H. Kruse, P. Pracht,  : VdW corrections, initial TS optimization,
                  C. Bannwarth, S. Ehlert          DFT functionals, gCP, sTDA/sTD-DF
   Ed Valeev, F. Pavosevic, A. Kumar             : LibInt (2-el integral package), F12 methods
   Garnet Chan, S. Sharma, J. Yang, R. Olivares  : DMRG
   Ulf Ekstrom                                   : XCFun DFT Library
   Mihaly Kallay                                 : mrcc  (arbitrary order and MRCC methods)
   Jiri Pittner, Ondrej Demel                    : Mk-CCSD
   Frank Weinhold                                : gennbo (NPA and NBO analysis)
   Christopher J. Cramer and Donald G. Truhlar   : smd solvation model
   Lars Goerigk                                  : TD-DFT with DH, B97 family of functionals
   V. Asgeirsson, H. Jonsson                     : NEB implementation
   FAccTs GmbH                                   : IRC, NEB, NEB-TS, DLPNO-Multilevel, CI-OPT
                                                   MM, QMMM, 2- and 3-layer-ONIOM, Crystal-QMMM,
                                                   LR-CPCM, SF, NACMEs, symmetry and pop. for TD-DFT,
                                                   nearIR, NL-DFT gradient (VV10), updates on ESD,
                                                   ML-optimized integration grids
   S Lehtola, MJT Oliveira, MAL Marques          : LibXC Library
   Liviu Ungur et al                             : ANISO software


 Your calculation uses the libint2 library for the computation of 2-el integrals
 For citations please refer to: http://libint.valeyev.net

 Your ORCA version has been built with support for libXC version: 5.1.0
 For citations please refer to: https://tddft.org/programs/libxc/

 This ORCA versions uses:
   CBLAS   interface :  Fast vector & matrix operations
   LAPACKE interface :  Fast linear algebra routines
   SCALAPACK package :  Parallel linear algebra routines
   Shared memory     :  Shared parallel matrices
   BLAS/LAPACK       :  OpenBLAS 0.3.15  USE64BITINT DYNAMIC_ARCH NO_AFFINITY Haswell SINGLE_THREADED
        Core in use  :  Haswell
   Copyright (c) 2011-2014, The OpenBLAS Project


Your calculation utilizes the atom-pairwise dispersion correction
with the Becke-Johnson damping scheme (D3BJ)
Cite in your paper:
S.Grimme, S.Ehrlich, L.Goerigk, J Comput Chem, (2011), 32, 1456–1465 
S.Grimme, J.Antony, S.Ehrlich and H.Krieg, J.Chem.Phys., 132, (2010), 154104 
   

================================================================================

----- Orbital basis set information -----
Your calculation utilizes the basis: def2-TZVP
   F. Weigend and R. Ahlrichs, Phys. Chem. Chem. Phys. 7, 3297 (2005).

----- AuxJ basis set information -----
Your calculation utilizes the auxiliary basis: def2/J
   F. Weigend, Phys. Chem. Chem. Phys. 8, 1057 (2006).

================================================================================
                                        WARNINGS
                       Please study these warnings very carefully!
================================================================================


WARNING: Geometry Optimization
  ===> : Switching off AutoStart
         For restart on a previous wavefunction, please use MOREAD

INFO   : the flag for use of the SHARK integral package has been found!

================================================================================
                                       INPUT FILE
================================================================================
NAME = desprop_oMe-Fentanyl_exoNProt_47.inp
|  1> ! wB97X-D3BJ TightOpt Freq def2-TZVP def2/J RIJCOSX TightSCF defgrid3 CHELPG
|  2> %maxcore 3400
|  3> 
|  4> %pal nprocs 8 
|  5> end
|  6> 
|  7> %chelpg
|  8> grid 0.1
|  9> rmax 3.0
| 10> end
| 11> 
| 12> *xyz 1 1
| 13> N          -2.36517100       0.10542100       0.47057300
| 14> N           0.13048400       0.75875500      -0.27740800
| 15> C          -0.70406400       2.01569000      -0.10743200
| 16> C          -1.87822800       1.93468900      -1.08076300
| 17> C          -1.20865600       2.09479100       1.32982600
| 18> C          -2.95866900       0.97371800      -0.54459800
| 19> C          -2.09881300       0.87861000       1.68050000
| 20> C          -3.06859100      -1.15045300       0.70036800
| 21> C          -2.98923600      -2.07721900      -0.52430700
| 22> C           1.34421200       0.69133800       0.53625700
| 23> C          -1.60884200      -2.07012500      -1.13764700
| 24> C           1.37563500      -0.14419400       1.63466900
| 25> C           2.42505300       1.48361700       0.18162700
| 26> C          -0.51410300      -2.57439800      -0.43288600
| 27> C          -1.38429000      -1.50425600      -2.39038100
| 28> C           2.53284200      -0.17370200       2.40519300
| 29> C           3.58632700       1.45357000       0.94659400
| 30> C           3.61932400       0.61613000       2.06440300
| 31> C           0.77050400      -2.49282400      -0.95366800
| 32> C          -0.09928900      -1.42367100      -2.92119900
| 33> C           0.98503100      -1.90858300      -2.19875000
| 34> H          -0.04995800       2.85671500      -0.33813700
| 35> H          -1.52403500       1.61030900      -2.06372700
| 36> H          -2.28482600       2.93897900      -1.21040200
| 37> H          -1.77664700       3.02400500       1.40682500
| 38> H          -0.37469600       2.17871400       2.02775800
| 39> H          -3.80488700       1.53428000      -0.12127800
| 40> H          -3.35275500       0.36806700      -1.35766800
| 41> H          -1.58971700       0.22909800       2.39596900
| 42> H          -3.03115100       1.21437700       2.15677600
| 43> H          -2.58038600      -1.63492100       1.55054000
| 44> H          -4.11909900      -0.98930000       0.98281000
| 45> H          -3.72461900      -1.78474500      -1.27663500
| 46> H          -3.26231700      -3.08641100      -0.20563300
| 47> H           0.52587200      -0.77066600       1.87869800
| 48> H          -0.67077600      -3.04285600       0.53455300
| 49> H          -2.22527200      -1.13328200      -2.96811500
| 50> H           2.58400600      -0.82082400       3.27294200
| 51> H           4.51686900       0.58226600       2.67294500
| 52> H           1.60734700      -2.89231100      -0.39179600
| 53> H           0.05064300      -0.99902800      -3.90833400
| 54> H           1.98584500      -1.85847500      -2.61267800
| 55> H          -0.55565700       0.00404600      -0.04411700
| 56> H           0.36328300       0.62006400      -1.26288900
| 57> C           2.34967763       2.39153525      -1.05998607
| 58> H           1.96240968       3.34860184      -0.77901084
| 59> H           3.32883300       2.51072516      -1.47465284
| 60> H           1.70541901       1.94610477      -1.78897339
| 61> H           4.43162866       2.05560870       0.68598988
| 62> *
| 63> 
| 64> 
| 65>                          ****END OF INPUT****
================================================================================

                       *****************************
                       * Geometry Optimization Run *
                       *****************************

Geometry optimization settings:
Update method            Update   .... BFGS
Choice of coordinates    CoordSys .... Z-matrix Internals
Initial Hessian          InHess   .... Almoef's Model

Convergence Tolerances:
Energy Change            TolE     ....  1.0000e-06 Eh
Max. Gradient            TolMAXG  ....  1.0000e-04 Eh/bohr
RMS Gradient             TolRMSG  ....  3.0000e-05 Eh/bohr
Max. Displacement        TolMAXD  ....  1.0000e-03 bohr
RMS Displacement         TolRMSD  ....  6.0000e-04 bohr
Strict Convergence                ....  False
------------------------------------------------------------------------------
                        ORCA OPTIMIZATION COORDINATE SETUP
------------------------------------------------------------------------------

The optimization will be done in new redundant internal coordinates
Making redundant internal coordinates   ...  (new redundants) done
Evaluating the initial hessian          ...  (Almloef) done
Evaluating the coordinates              ...  done
Calculating the B-matrix                .... done
Calculating the G-matrix                .... done
Diagonalizing the G-matrix              .... done
Small eigenvalue found = 2.186e-03
Small eigenvalue found = 3.939e-03
Small eigenvalue found = 8.818e-03
Small eigenvalue found = 1.256e-02
Small eigenvalue found = 1.851e-02
Small eigenvalue found = 2.409e-02
The first mode is                       ....  142
The number of degrees of freedom        ....  141

    -----------------------------------------------------------------
                    Redundant Internal Coordinates


    -----------------------------------------------------------------
         Definition                    Initial Value    Approx d2E/dq
    -----------------------------------------------------------------
      1. B(C   2,N   1)                  1.5183         0.349280   
      2. B(C   3,C   2)                  1.5273         0.377321   
      3. B(C   4,C   2)                  1.5253         0.380062   
      4. B(C   5,C   3)                  1.5422         0.357240   
      5. B(C   5,N   0)                  1.4618         0.429914   
      6. B(C   6,C   4)                  1.5474         0.350442   
      7. B(C   6,N   0)                  1.4604         0.432114   
      8. B(C   7,N   0)                  1.4577         0.436415   
      9. B(C   8,C   7)                  1.5379         0.362939   
     10. B(C   9,N   1)                  1.4628         0.428308   
     11. B(C  10,C   8)                  1.5105         0.401262   
     12. B(C  11,C   9)                  1.3804         0.647133   
     13. B(C  12,C   9)                  1.3862         0.633466   
     14. B(C  13,C  10)                  1.3962         0.610680   
     15. B(C  14,C  10)                  1.3928         0.618336   
     16. B(C  15,C  11)                  1.3906         0.623472   
     17. B(C  16,C  12)                  1.3909         0.622708   
     18. B(C  17,C  16)                  1.3971         0.608708   
     19. B(C  17,C  15)                  1.3858         0.634533   
     20. B(C  18,C  13)                  1.3886         0.628123   
     21. B(C  19,C  14)                  1.3927         0.618731   
     22. B(C  20,C  19)                  1.3903         0.624201   
     23. B(C  20,C  18)                  1.3920         0.620284   
     24. B(H  21,C   2)                  1.0901         0.359916   
     25. B(H  22,C   3)                  1.0940         0.354813   
     26. B(H  23,C   3)                  1.0912         0.358511   
     27. B(H  24,C   4)                  1.0918         0.357754   
     28. B(H  25,C   4)                  1.0907         0.359166   
     29. B(H  26,C   5)                  1.0998         0.347393   
     30. B(H  27,C   5)                  1.0877         0.363089   
     31. B(H  28,C   6)                  1.0922         0.357178   
     32. B(H  29,C   6)                  1.0995         0.347789   
     33. B(H  30,C   7)                  1.0935         0.355438   
     34. B(H  31,C   7)                  1.0997         0.347511   
     35. B(H  32,C   8)                  1.0919         0.357547   
     36. B(H  33,C   8)                  1.0930         0.356186   
     37. B(H  34,C  11)                  1.0836         0.368713   
     38. B(H  35,C  13)                  1.0862         0.365096   
     39. B(H  36,C  14)                  1.0857         0.365893   
     40. B(H  37,C  15)                  1.0837         0.368552   
     41. B(H  38,C  17)                  1.0849         0.366880   
     42. B(H  39,C  18)                  1.0842         0.367789   
     43. B(H  40,C  19)                  1.0850         0.366768   
     44. B(H  41,C  20)                  1.0842         0.367864   
     45. B(H  42,N   1)                  1.0463         0.378650   
     46. B(H  43,C  20)                  2.7670         0.000760   
     47. B(H  43,N   1)                  1.0221         0.413958   
     48. B(C  44,C  12)                  1.5400         0.360100   
     49. B(H  45,C  44)                  1.0700         0.387554   
     50. B(H  46,C  44)                  1.0700         0.387554   
     51. B(H  47,C  44)                  1.0700         0.387554   
     52. B(H  48,C  16)                  1.0700         0.387554   
     53. A(C   5,N   0,C   7)          115.1713         0.377550   
     54. A(C   6,N   0,C   7)          114.4283         0.377883   
     55. A(C   5,N   0,C   6)          109.5690         0.376904   
     56. A(C   2,N   1,H  43)          110.2111         0.323460   
     57. A(C   2,N   1,H  42)          102.2232         0.318776   
     58. A(C   9,N   1,H  42)          112.7584         0.329633   
     59. A(C   2,N   1,C   9)          115.5917         0.363132   
     60. A(C   9,N   1,H  43)          109.9433         0.334538   
     61. A(H  42,N   1,H  43)          105.4543         0.294808   
     62. A(N   1,C   2,C   4)          109.2842         0.358030   
     63. A(C   3,C   2,C   4)          110.4219         0.365045   
     64. A(N   1,C   2,H  21)          106.5695         0.318831   
     65. A(C   4,C   2,H  21)          110.9711         0.325210   
     66. A(N   1,C   2,C   3)          107.8978         0.357590   
     67. A(C   3,C   2,H  21)          111.5515         0.324824   
     68. A(H  22,C   3,H  23)          106.6651         0.289964   
     69. A(C   2,C   3,H  23)          108.2621         0.324615   
     70. A(C   2,C   3,C   5)          110.4931         0.361203   
     71. A(C   5,C   3,H  23)          110.7168         0.321716   
     72. A(C   2,C   3,H  22)          109.8419         0.324063   
     73. A(C   5,C   3,H  22)          110.7589         0.321171   
     74. A(C   2,C   4,H  24)          106.4211         0.324888   
     75. A(C   6,C   4,H  25)          110.8123         0.320802   
     76. A(C   2,C   4,H  25)          110.7321         0.325099   
     77. A(C   6,C   4,H  24)          110.7117         0.320596   
     78. A(H  24,C   4,H  25)          106.6883         0.290423   
     79. A(C   2,C   4,C   6)          111.2897         0.360467   
     80. A(H  26,C   5,H  27)          107.0226         0.289580   
     81. A(N   0,C   5,H  27)          109.6012         0.330373   
     82. A(C   3,C   5,H  27)          109.9318         0.322386   
     83. A(N   0,C   5,C   3)          109.0953         0.367055   
     84. A(C   3,C   5,H  26)          110.8107         0.320063   
     85. A(N   0,C   5,H  26)          110.3563         0.327971   
     86. A(C   4,C   6,H  29)          110.2405         0.319120   
     87. A(H  28,C   6,H  29)          107.0437         0.288887   
     88. A(N   0,C   6,H  29)          111.4642         0.328309   
     89. A(C   4,C   6,H  28)          110.3466         0.320511   
     90. A(N   0,C   6,H  28)          108.2334         0.329756   
     91. A(N   0,C   6,C   4)          109.4682         0.366169   
     92. A(C   8,C   7,H  31)          110.0072         0.320910   
     93. A(C   8,C   7,H  30)          109.2141         0.322097   
     94. A(N   0,C   7,H  30)          106.7870         0.330029   
     95. A(N   0,C   7,C   8)          111.6393         0.369003   
     96. A(N   0,C   7,H  31)          112.0376         0.328802   
     97. A(H  30,C   7,H  31)          106.9610         0.288631   
     98. A(H  32,C   8,H  33)          106.2563         0.290017   
     99. A(C   7,C   8,H  33)          108.1410         0.322208   
    100. A(C  10,C   8,H  32)          109.5378         0.327773   
    101. A(C   7,C   8,H  32)          110.6407         0.322409   
    102. A(C   7,C   8,C  10)          111.5723         0.366010   
    103. A(C  10,C   8,H  33)          110.5515         0.327567   
    104. A(N   1,C   9,C  12)          118.5743         0.405277   
    105. A(N   1,C   9,C  11)          119.3002         0.406809   
    106. A(C  11,C   9,C  12)          122.1226         0.439126   
    107. A(C  13,C  10,C  14)          118.3149         0.432676   
    108. A(C   8,C  10,C  14)          120.9599         0.401513   
    109. A(C   8,C  10,C  13)          120.6551         0.400633   
    110. A(C   9,C  11,H  34)          120.7495         0.356909   
    111. A(C   9,C  11,C  15)          118.2088         0.437868   
    112. A(C  15,C  11,H  34)          121.0348         0.354660   
    113. A(C   9,C  12,C  16)          119.8626         0.436090   
    114. A(C  16,C  12,C  44)          119.8026         0.394437   
    115. A(C   9,C  12,C  44)          120.3339         0.395624   
    116. A(C  10,C  13,C  18)          120.9872         0.433900   
    117. A(C  18,C  13,H  35)          119.5249         0.354514   
    118. A(C  10,C  13,H  35)          119.4868         0.352827   
    119. A(C  10,C  14,C  19)          121.0030         0.433696   
    120. A(C  19,C  14,H  36)          119.4817         0.353741   
    121. A(C  10,C  14,H  36)          119.5094         0.353703   
    122. A(C  11,C  15,C  17)          120.2704         0.436319   
    123. A(C  17,C  15,H  37)          120.0163         0.355693   
    124. A(C  11,C  15,H  37)          119.7129         0.354634   
    125. A(C  12,C  16,H  48)          120.8952         0.357599   
    126. A(C  12,C  16,C  17)          118.2096         0.432973   
    127. A(C  17,C  16,H  48)          120.8952         0.356220   
    128. A(C  15,C  17,C  16)          121.3239         0.434440   
    129. A(C  16,C  17,H  38)          119.1453         0.352925   
    130. A(C  15,C  17,H  38)          119.5301         0.355419   
    131. A(C  13,C  18,C  20)          120.1796         0.435120   
    132. A(C  20,C  18,H  39)          119.9485         0.354201   
    133. A(C  13,C  18,H  39)          119.8702         0.354956   
    134. A(C  14,C  19,C  20)          120.0927         0.434434   
    135. A(C  20,C  19,H  40)          120.0998         0.354413   
    136. A(C  14,C  19,H  40)          119.7967         0.353884   
    137. A(C  18,C  20,C  19)          119.4068         0.434630   
    138. A(C  19,C  20,H  41)          120.3609         0.354592   
    139. A(C  18,C  20,H  41)          120.2092         0.354214   
    140. A(H  46,C  44,H  47)          109.4712         0.297665   
    141. A(H  45,C  44,H  47)          109.4712         0.297665   
    142. A(C  12,C  44,H  47)          109.4712         0.326284   
    143. A(H  45,C  44,H  46)          109.4713         0.297665   
    144. A(C  12,C  44,H  46)          109.4712         0.326284   
    145. A(C  12,C  44,H  45)          109.4712         0.326284   
    146. D(H  21,C   2,N   1,H  43)    -68.1636         0.011248   
    147. D(H  21,C   2,N   1,H  42)   -179.8974         0.011248   
    148. D(C   4,C   2,N   1,H  43)    171.8561         0.011248   
    149. D(C   3,C   2,N   1,H  43)     51.7591         0.011248   
    150. D(C   3,C   2,N   1,H  42)    -59.9747         0.011248   
    151. D(C   4,C   2,N   1,C   9)    -62.7405         0.011248   
    152. D(C   4,C   2,N   1,H  42)     60.1223         0.011248   
    153. D(H  21,C   2,N   1,C   9)     57.2398         0.011248   
    154. D(C   3,C   2,N   1,C   9)    177.1625         0.011248   
    155. D(H  22,C   3,C   2,N   1)    -45.4174         0.011356   
    156. D(H  22,C   3,C   2,C   4)   -164.7953         0.011356   
    157. D(H  23,C   3,C   2,N   1)   -161.5290         0.011356   
    158. D(H  23,C   3,C   2,H  21)    -44.8010         0.011356   
    159. D(C   5,C   3,C   2,N   1)     77.0711         0.011356   
    160. D(H  23,C   3,C   2,C   4)     79.0931         0.011356   
    161. D(C   5,C   3,C   2,C   4)    -42.3068         0.011356   
    162. D(C   5,C   3,C   2,H  21)   -166.2009         0.011356   
    163. D(H  22,C   3,C   2,H  21)     71.3106         0.011356   
    164. D(H  24,C   4,C   2,H  21)     61.2576         0.011512   
    165. D(H  25,C   4,C   2,C   3)   -178.5433         0.011512   
    166. D(H  25,C   4,C   2,N   1)     62.9216         0.011512   
    167. D(H  24,C   4,C   2,C   3)    -62.9705         0.011512   
    168. D(H  24,C   4,C   2,N   1)    178.4944         0.011512   
    169. D(H  25,C   4,C   2,H  21)    -54.3152         0.011512   
    170. D(C   6,C   4,C   2,N   1)    -60.8049         0.011512   
    171. D(C   6,C   4,C   2,C   3)     57.7302         0.011512   
    172. D(C   6,C   4,C   2,H  21)   -178.0417         0.011512   
    173. D(H  26,C   5,N   0,C   7)     80.4486         0.015758   
    174. D(H  26,C   5,N   0,C   6)    -50.2449         0.015758   
    175. D(C   3,C   5,N   0,C   6)     71.7240         0.015758   
    176. D(C   3,C   5,N   0,C   7)   -157.5825         0.015758   
    177. D(H  27,C   5,C   3,H  23)    101.0180         0.010250   
    178. D(H  27,C   5,C   3,H  22)    -17.0970         0.010250   
    179. D(H  27,C   5,C   3,C   2)   -139.0472         0.010250   
    180. D(H  26,C   5,C   3,H  22)   -135.1937         0.010250   
    181. D(H  26,C   5,C   3,H  23)    -17.0787         0.010250   
    182. D(H  26,C   5,C   3,C   2)    102.8561         0.010250   
    183. D(N   0,C   5,C   3,H  23)   -138.7727         0.010250   
    184. D(N   0,C   5,C   3,H  22)    103.1123         0.010250   
    185. D(N   0,C   5,C   3,C   2)    -18.8379         0.010250   
    186. D(H  27,C   5,N   0,C   7)    -37.1700         0.015758   
    187. D(H  27,C   5,N   0,C   6)   -167.8635         0.015758   
    188. D(H  29,C   6,C   4,H  25)    104.8494         0.009893   
    189. D(H  29,C   6,C   4,H  24)    -13.3250         0.009893   
    190. D(H  28,C   6,C   4,H  25)    -13.1796         0.009893   
    191. D(H  28,C   6,C   4,H  24)   -131.3541         0.009893   
    192. D(H  28,C   6,C   4,C   2)    110.5012         0.009893   
    193. D(N   0,C   6,C   4,H  25)   -132.1944         0.009893   
    194. D(N   0,C   6,C   4,H  24)    109.6312         0.009893   
    195. D(N   0,C   6,C   4,C   2)     -8.5135         0.009893   
    196. D(H  29,C   6,N   0,C   7)    -64.4306         0.015920   
    197. D(H  29,C   6,N   0,C   5)     66.6594         0.015920   
    198. D(H  28,C   6,N   0,C   7)     53.0289         0.015920   
    199. D(H  29,C   6,C   4,C   2)   -131.4697         0.009893   
    200. D(H  28,C   6,N   0,C   5)   -175.8811         0.015920   
    201. D(C   4,C   6,N   0,C   7)    173.3423         0.015920   
    202. D(C   4,C   6,N   0,C   5)    -55.5677         0.015920   
    203. D(H  31,C   7,N   0,C   5)    -57.0637         0.016239   
    204. D(H  30,C   7,N   0,C   6)    -45.5499         0.016239   
    205. D(H  30,C   7,N   0,C   5)   -173.8611         0.016239   
    206. D(C   8,C   7,N   0,C   6)   -164.8570         0.016239   
    207. D(H  31,C   7,N   0,C   6)     71.2475         0.016239   
    208. D(C   8,C   7,N   0,C   5)     66.8318         0.016239   
    209. D(H  33,C   8,C   7,H  31)    -71.4022         0.010556   
    210. D(H  33,C   8,C   7,N   0)    163.5653         0.010556   
    211. D(H  32,C   8,C   7,H  31)     44.5869         0.010556   
    212. D(H  32,C   8,C   7,H  30)    161.6950         0.010556   
    213. D(H  32,C   8,C   7,N   0)    -80.4455         0.010556   
    214. D(C  10,C   8,C   7,H  31)    166.8099         0.010556   
    215. D(H  33,C   8,C   7,H  30)     45.7058         0.010556   
    216. D(C  10,C   8,C   7,H  30)    -76.0820         0.010556   
    217. D(C  10,C   8,C   7,N   0)     41.7775         0.010556   
    218. D(C  12,C   9,N   1,H  43)     51.8592         0.015640   
    219. D(C  12,C   9,N   1,H  42)    169.2219         0.015640   
    220. D(C  12,C   9,N   1,C   2)    -73.6816         0.015640   
    221. D(C  11,C   9,N   1,H  43)   -128.7379         0.015640   
    222. D(C  11,C   9,N   1,H  42)    -11.3752         0.015640   
    223. D(C  11,C   9,N   1,C   2)    105.7213         0.015640   
    224. D(C  14,C  10,C   8,H  33)    128.2458         0.011946   
    225. D(C  14,C  10,C   8,H  32)     11.4850         0.011946   
    226. D(C  14,C  10,C   8,C   7)   -111.3702         0.011946   
    227. D(C  13,C  10,C   8,H  33)    -54.8501         0.011946   
    228. D(C  13,C  10,C   8,H  32)   -171.6109         0.011946   
    229. D(C  13,C  10,C   8,C   7)     65.5339         0.011946   
    230. D(H  34,C  11,C   9,C  12)   -178.6117         0.029140   
    231. D(H  34,C  11,C   9,N   1)      2.0075         0.029140   
    232. D(C  15,C  11,C   9,C  12)      0.4470         0.029140   
    233. D(C  15,C  11,C   9,N   1)   -178.9338         0.029140   
    234. D(C  44,C  12,C   9,C  11)    179.4437         0.027843   
    235. D(C  44,C  12,C   9,N   1)     -1.1712         0.027843   
    236. D(C  16,C  12,C   9,C  11)     -0.2156         0.027843   
    237. D(C  16,C  12,C   9,N   1)    179.1695         0.027843   
    238. D(H  35,C  13,C  10,C  14)   -178.4346         0.025759   
    239. D(H  35,C  13,C  10,C   8)      4.5810         0.025759   
    240. D(C  18,C  13,C  10,C  14)      1.1923         0.025759   
    241. D(C  18,C  13,C  10,C   8)   -175.7922         0.025759   
    242. D(H  36,C  14,C  10,C  13)    178.1675         0.026448   
    243. D(H  36,C  14,C  10,C   8)     -4.8576         0.026448   
    244. D(C  19,C  14,C  10,C  13)     -0.9429         0.026448   
    245. D(C  19,C  14,C  10,C   8)    176.0320         0.026448   
    246. D(H  37,C  15,C  11,H  34)     -0.9458         0.026917   
    247. D(H  37,C  15,C  11,C   9)    179.9984         0.026917   
    248. D(C  17,C  15,C  11,H  34)    178.8118         0.026917   
    249. D(C  17,C  15,C  11,C   9)     -0.2440         0.026917   
    250. D(H  48,C  16,C  12,C  44)      0.1213         0.026847   
    251. D(H  48,C  16,C  12,C   9)    179.7824         0.026847   
    252. D(C  17,C  16,C  12,C  44)   -179.8787         0.026847   
    253. D(C  17,C  16,C  12,C   9)     -0.2176         0.026847   
    254. D(H  38,C  17,C  16,H  48)      0.1153         0.025584   
    255. D(H  38,C  17,C  16,C  12)   -179.8847         0.025584   
    256. D(C  15,C  17,C  16,H  48)   -179.5838         0.025584   
    257. D(C  15,C  17,C  16,C  12)      0.4162         0.025584   
    258. D(H  38,C  17,C  15,H  37)     -0.1267         0.027943   
    259. D(H  38,C  17,C  15,C  11)   -179.8835         0.027943   
    260. D(C  16,C  17,C  15,H  37)    179.5712         0.027943   
    261. D(C  16,C  17,C  15,C  11)     -0.1856         0.027943   
    262. D(H  39,C  18,C  13,H  35)     -0.2407         0.027345   
    263. D(H  39,C  18,C  13,C  10)   -179.8674         0.027345   
    264. D(C  20,C  18,C  13,H  35)    179.2911         0.027345   
    265. D(C  20,C  18,C  13,C  10)     -0.3356         0.027345   
    266. D(H  40,C  19,C  14,H  36)     -0.4674         0.026484   
    267. D(H  40,C  19,C  14,C  10)    178.6433         0.026484   
    268. D(C  20,C  19,C  14,H  36)   -179.2738         0.026484   
    269. D(C  20,C  19,C  14,C  10)     -0.1631         0.026484   
    270. D(H  41,C  20,C  18,C  13)   -179.0480         0.028933   
    271. D(C  19,C  20,C  18,H  39)    178.7402         0.028933   
    272. D(C  19,C  20,C  18,C  13)     -0.7912         0.028933   
    273. D(H  41,C  20,C  19,H  40)      0.4883         0.029324   
    274. D(H  41,C  20,C  19,C  14)    179.2911         0.029324   
    275. D(C  18,C  20,C  19,H  40)   -177.7658         0.029324   
    276. D(C  18,C  20,C  19,C  14)      1.0370         0.029324   
    277. D(H  41,C  20,C  18,H  39)      0.4834         0.028933   
    278. D(H  47,C  44,C  12,C  16)    149.2009         0.009750   
    279. D(H  47,C  44,C  12,C   9)    -30.4585         0.009750   
    280. D(H  46,C  44,C  12,C  16)     29.2009         0.009750   
    281. D(H  46,C  44,C  12,C   9)   -150.4585         0.009750   
    282. D(H  45,C  44,C  12,C  16)    -90.7991         0.009750   
    283. D(H  45,C  44,C  12,C   9)     89.5415         0.009750   
    -----------------------------------------------------------------

Number of atoms                         .... 49
Number of degrees of freedom            .... 283

         *************************************************************
         *                GEOMETRY OPTIMIZATION CYCLE   1            *
         *************************************************************
---------------------------------
CARTESIAN COORDINATES (ANGSTROEM)
---------------------------------
  N     -2.365171    0.105421    0.470573
  N      0.130484    0.758755   -0.277408
  C     -0.704064    2.015690   -0.107432
  C     -1.878228    1.934689   -1.080763
  C     -1.208656    2.094791    1.329826
  C     -2.958669    0.973718   -0.544598
  C     -2.098813    0.878610    1.680500
  C     -3.068591   -1.150453    0.700368
  C     -2.989236   -2.077219   -0.524307
  C      1.344212    0.691338    0.536257
  C     -1.608842   -2.070125   -1.137647
  C      1.375635   -0.144194    1.634669
  C      2.425053    1.483617    0.181627
  C     -0.514103   -2.574398   -0.432886
  C     -1.384290   -1.504256   -2.390381
  C      2.532842   -0.173702    2.405193
  C      3.586327    1.453570    0.946594
  C      3.619324    0.616130    2.064403
  C      0.770504   -2.492824   -0.953668
  C     -0.099289   -1.423671   -2.921199
  C      0.985031   -1.908583   -2.198750
  H     -0.049958    2.856715   -0.338137
  H     -1.524035    1.610309   -2.063727
  H     -2.284826    2.938979   -1.210402
  H     -1.776647    3.024005    1.406825
  H     -0.374696    2.178714    2.027758
  H     -3.804887    1.534280   -0.121278
  H     -3.352755    0.368067   -1.357668
  H     -1.589717    0.229098    2.395969
  H     -3.031151    1.214377    2.156776
  H     -2.580386   -1.634921    1.550540
  H     -4.119099   -0.989300    0.982810
  H     -3.724619   -1.784745   -1.276635
  H     -3.262317   -3.086411   -0.205633
  H      0.525872   -0.770666    1.878698
  H     -0.670776   -3.042856    0.534553
  H     -2.225272   -1.133282   -2.968115
  H      2.584006   -0.820824    3.272942
  H      4.516869    0.582266    2.672945
  H      1.607347   -2.892311   -0.391796
  H      0.050643   -0.999028   -3.908334
  H      1.985845   -1.858475   -2.612678
  H     -0.555657    0.004046   -0.044117
  H      0.363283    0.620064   -1.262889
  C      2.349678    2.391535   -1.059986
  H      1.962410    3.348602   -0.779011
  H      3.328833    2.510725   -1.474653
  H      1.705419    1.946105   -1.788973
  H      4.431629    2.055609    0.685990

----------------------------
CARTESIAN COORDINATES (A.U.)
----------------------------
  NO LB      ZA    FRAG     MASS         X           Y           Z
   0 N     7.0000    0    14.007   -4.469525    0.199217    0.889254
   1 N     7.0000    0    14.007    0.246579    1.433839   -0.524225
   2 C     6.0000    0    12.011   -1.330488    3.809102   -0.203017
   3 C     6.0000    0    12.011   -3.549337    3.656032   -2.042346
   4 C     6.0000    0    12.011   -2.284029    3.958581    2.513007
   5 C     6.0000    0    12.011   -5.591074    1.840060   -1.029141
   6 C     6.0000    0    12.011   -3.966182    1.660332    3.175685
   7 C     6.0000    0    12.011   -5.798797   -2.174041    1.323504
   8 C     6.0000    0    12.011   -5.648837   -3.925375   -0.990797
   9 C     6.0000    0    12.011    2.540193    1.306439    1.013379
  10 C     6.0000    0    12.011   -3.040271   -3.911969   -2.149841
  11 C     6.0000    0    12.011    2.599573   -0.272487    3.089077
  12 C     6.0000    0    12.011    4.582686    2.803630    0.343225
  13 C     6.0000    0    12.011   -0.971514   -4.864907   -0.818036
  14 C     6.0000    0    12.011   -2.615929   -2.842632   -4.517165
  15 C     6.0000    0    12.011    4.786378   -0.328249    4.545156
  16 C     6.0000    0    12.011    6.777176    2.746849    1.788803
  17 C     6.0000    0    12.011    6.839531    1.164317    3.901156
  18 C     6.0000    0    12.011    1.456042   -4.710755   -1.802171
  19 C     6.0000    0    12.011   -0.187629   -2.690348   -5.520266
  20 C     6.0000    0    12.011    1.861439   -3.606699   -4.155035
  21 H     1.0000    0     1.008   -0.094407    5.398409   -0.638986
  22 H     1.0000    0     1.008   -2.880009    3.043043   -3.899879
  23 H     1.0000    0     1.008   -4.317695    5.553865   -2.287328
  24 H     1.0000    0     1.008   -3.357376    5.714541    2.658514
  25 H     1.0000    0     1.008   -0.708073    4.117173    3.831907
  26 H     1.0000    0     1.008   -7.190194    2.899369   -0.229182
  27 H     1.0000    0     1.008   -6.335789    0.695546   -2.565621
  28 H     1.0000    0     1.008   -3.004130    0.432932    4.527725
  29 H     1.0000    0     1.008   -5.728045    2.294840    4.075716
  30 H     1.0000    0     1.008   -4.876223   -3.089553    2.930096
  31 H     1.0000    0     1.008   -7.783969   -1.869506    1.857242
  32 H     1.0000    0     1.008   -7.038510   -3.372679   -2.412491
  33 H     1.0000    0     1.008   -6.164886   -5.832472   -0.388590
  34 H     1.0000    0     1.008    0.993754   -1.456348    3.550225
  35 H     1.0000    0     1.008   -1.267583   -5.750165    1.010159
  36 H     1.0000    0     1.008   -4.205155   -2.141593   -5.608924
  37 H     1.0000    0     1.008    4.883064   -1.551133    6.184964
  38 H     1.0000    0     1.008    8.535645    1.100323    5.051134
  39 H     1.0000    0     1.008    3.037446   -5.465676   -0.740387
  40 H     1.0000    0     1.008    0.095701   -1.887889   -7.385681
  41 H     1.0000    0     1.008    3.752703   -3.512009   -4.937246
  42 H     1.0000    0     1.008   -1.050040    0.007646   -0.083369
  43 H     1.0000    0     1.008    0.686505    1.171751   -2.386514
  44 C     6.0000    0    12.011    4.440247    4.519347   -2.003083
  45 H     1.0000    0     1.008    3.708417    6.327940   -1.472117
  46 H     1.0000    0     1.008    6.290583    4.744583   -2.786690
  47 H     1.0000    0     1.008    3.222775    3.677605   -3.380670
  48 H     1.0000    0     1.008    8.374564    3.884537    1.296333

--------------------------------
INTERNAL COORDINATES (ANGSTROEM)
--------------------------------
 N      0   0   0     0.000000000000     0.00000000     0.00000000
 N      1   0   0     2.686003494216     0.00000000     0.00000000
 C      2   1   0     1.518304251165    70.09165510     0.00000000
 C      3   2   1     1.527283698747   107.89783951   299.83190078
 C      3   2   1     1.525313283634   109.28415648    59.92891035
 C      1   2   3     1.461763221406    92.25589744    48.39972935
 C      1   2   3     1.460373636853    86.12794435   298.93037205
 C      1   2   3     1.457677928179   134.57373205   177.91988485
 C      8   1   2     1.537862572015   111.63929763   305.22644127
 C      2   1   3     1.462782089752   127.21651161   107.56765274
 C      9   8   1     1.510537611472   111.57230246    41.77747947
 C     10   2   1     1.380438354182   119.30022755    22.05684900
 C     10   2   1     1.386248793695   118.57432694   202.65398682
 C     11   9   8     1.396220900779   120.65508766    65.53388477
 C     11   9   8     1.392829422658   120.95987689   248.62978439
 C     12  10   2     1.390577576940   118.20877290   181.06615387
 C     13  10   2     1.390911440881   119.86257234   179.16954303
 C     16  12  10     1.385790586145   120.27044847   359.75595536
 C     14  11   9     1.388554411411   120.98717100   184.20781070
 C     15  11   9     1.392655471159   121.00304178   176.03196176
 C     20  15  11     1.390259712336   120.09265651   359.83690658
 H      3   2   1     1.090138755795   106.56951461   179.90920222
 H      4   3   2     1.094026183848   109.84193652   314.58258854
 H      4   3   2     1.091204200883   108.26208641   198.47100242
 H      5   3   2     1.091778951930   106.42109959   178.49437420
 H      5   3   2     1.090706847944   110.73210085    62.92157840
 H      6   1   2     1.099779287752   110.35629589   223.06407738
 H      6   1   2     1.087749849045   109.60116353   105.44550709
 H      7   1   2     1.092218139989   108.23338342   275.13945563
 H      7   1   2     1.099469168603   111.46423544   157.67998090
 H      8   1   2     1.093547344486   106.78703508    64.53352331
 H      8   1   2     1.099686696672   112.03755190   181.33090764
 H      9   8   1     1.091937093861   110.64069205   279.55448523
 H      9   8   1     1.092975225566   108.14100488   163.56529750
 H     12  10   2     1.083565630589   120.74954344     2.00749641
 H     14  11   9     1.086249301686   119.48683724     4.58096786
 H     15  11   9     1.085656026445   119.50937270   355.14238385
 H     16  12  10     1.083684901058   119.71285353   179.99839740
 H     18  16  12     1.084922653135   119.53011923   180.11648014
 H     19  14  11     1.084249147660   119.87020072   180.13259178
 H     20  15  11     1.085005433303   119.79671139   178.64326794
 H     21  20  15     1.084193646654   120.36090200   179.29105809
 H      2   1   3     1.046326830987    32.13212475   180.35543056
 H      2   1   3     1.022058398157   116.55994801   256.71752339
 C     13  10   2     1.540000003468   120.33394344   358.82878819
 H     45  13  10     1.070000001245   109.47120227    89.54148033
 H     45  13  10     1.070000001583   109.47120252   209.54149497
 H     45  13  10     1.069999997513   109.47123125   329.54148751
 H     17  13  10     1.070000000027   120.89520393   179.78235210

---------------------------
INTERNAL COORDINATES (A.U.)
---------------------------
 N      0   0   0     0.000000000000     0.00000000     0.00000000
 N      1   0   0     5.075810998824     0.00000000     0.00000000
 C      2   1   0     2.869179222670    70.09165510     0.00000000
 C      3   2   1     2.886147919434   107.89783951   299.83190078
 C      3   2   1     2.882424374500   109.28415648    59.92891035
 C      1   2   3     2.762332161095    92.25589744    48.39972935
 C      1   2   3     2.759706226850    86.12794435   298.93037205
 C      1   2   3     2.754612075721   134.57373205   177.91988485
 C      8   1   2     2.906139092717   111.63929763   305.22644127
 C      2   1   3     2.764257543236   127.21651161   107.56765274
 C      9   8   1     2.854502400670   111.57230246    41.77747947
 C     10   2   1     2.608650434165   119.30022755    22.05684900
 C     10   2   1     2.619630573563   118.57432694   202.65398682
 C     11   9   8     2.638475124928   120.65508766    65.53388477
 C     11   9   8     2.632066160091   120.95987689   248.62978439
 C     12  10   2     2.627810788389   118.20877290   181.06615387
 C     13  10   2     2.628441699803   119.86257234   179.16954303
 C     16  12  10     2.618764686780   120.27044847   359.75595536
 C     14  11   9     2.623987559615   120.98717100   184.20781070
 C     15  11   9     2.631737439398   121.00304178   176.03196176
 C     20  15  11     2.627210111339   120.09265651   359.83690658
 H      3   2   1     2.060063696426   106.56951461   179.90920222
 H      4   3   2     2.067409870812   109.84193652   314.58258854
 H      4   3   2     2.062077095854   108.26208641   198.47100242
 H      5   3   2     2.063163217928   106.42109959   178.49437420
 H      5   3   2     2.061137235008   110.73210085    62.92157840
 H      6   1   2     2.078281661610   110.35629589   223.06407738
 H      6   1   2     2.055549316909   109.60116353   105.44550709
 H      7   1   2     2.063993163080   108.23338342   275.13945563
 H      7   1   2     2.077695621350   111.46423544   157.67998090
 H      8   1   2     2.066504995556   106.78703508    64.53352331
 H      8   1   2     2.078106689826   112.03755190   181.33090764
 H      9   8   1     2.063462062867   110.64069205   279.55448523
 H      9   8   1     2.065423847481   108.14100488   163.56529750
 H     12  10   2     2.047642289943   120.74954344     2.00749641
 H     14  11   9     2.052713693350   119.48683724     4.58096786
 H     15  11   9     2.051592565622   119.50937270   355.14238385
 H     16  12  10     2.047867678465   119.71285353   179.99839740
 H     18  16  12     2.050206690912   119.53011923   180.11648014
 H     19  14  11     2.048933950015   119.87020072   180.13259178
 H     20  15  11     2.050363122760   119.79671139   178.64326794
 H     21  20  15     2.048829068313   120.36090200   179.29105809
 H      2   1   3     1.977271157139    32.13212475   180.35543056
 H      2   1   3     1.931410465391   116.55994801   256.71752339
 C     13  10   2     2.910178252792   120.33394344   358.82878819
 H     45  13  10     2.022006965649   109.47120227    89.54148033
 H     45  13  10     2.022006966287   109.47120252   209.54149497
 H     45  13  10     2.022006958596   109.47123125   329.54148751
 H     17  13  10     2.022006963346   120.89520393   179.78235210

---------------------
BASIS SET INFORMATION
---------------------
There are 3 groups of distinct atoms

 Group   1 Type N   : 11s6p2d1f contracted to 5s3p2d1f pattern {62111/411/11/1}
 Group   2 Type C   : 11s6p2d1f contracted to 5s3p2d1f pattern {62111/411/11/1}
 Group   3 Type H   : 5s1p contracted to 3s1p pattern {311/1}

Atom   0N    basis set group =>   1
Atom   1N    basis set group =>   1
Atom   2C    basis set group =>   2
Atom   3C    basis set group =>   2
Atom   4C    basis set group =>   2
Atom   5C    basis set group =>   2
Atom   6C    basis set group =>   2
Atom   7C    basis set group =>   2
Atom   8C    basis set group =>   2
Atom   9C    basis set group =>   2
Atom  10C    basis set group =>   2
Atom  11C    basis set group =>   2
Atom  12C    basis set group =>   2
Atom  13C    basis set group =>   2
Atom  14C    basis set group =>   2
Atom  15C    basis set group =>   2
Atom  16C    basis set group =>   2
Atom  17C    basis set group =>   2
Atom  18C    basis set group =>   2
Atom  19C    basis set group =>   2
Atom  20C    basis set group =>   2
Atom  21H    basis set group =>   3
Atom  22H    basis set group =>   3
Atom  23H    basis set group =>   3
Atom  24H    basis set group =>   3
Atom  25H    basis set group =>   3
Atom  26H    basis set group =>   3
Atom  27H    basis set group =>   3
Atom  28H    basis set group =>   3
Atom  29H    basis set group =>   3
Atom  30H    basis set group =>   3
Atom  31H    basis set group =>   3
Atom  32H    basis set group =>   3
Atom  33H    basis set group =>   3
Atom  34H    basis set group =>   3
Atom  35H    basis set group =>   3
Atom  36H    basis set group =>   3
Atom  37H    basis set group =>   3
Atom  38H    basis set group =>   3
Atom  39H    basis set group =>   3
Atom  40H    basis set group =>   3
Atom  41H    basis set group =>   3
Atom  42H    basis set group =>   3
Atom  43H    basis set group =>   3
Atom  44C    basis set group =>   2
Atom  45H    basis set group =>   3
Atom  46H    basis set group =>   3
Atom  47H    basis set group =>   3
Atom  48H    basis set group =>   3
---------------------------------
AUXILIARY/J BASIS SET INFORMATION
---------------------------------
There are 3 groups of distinct atoms

 Group   1 Type N   : 12s5p4d2f1g contracted to 6s4p3d1f1g pattern {711111/2111/211/2/1}
 Group   2 Type C   : 12s5p4d2f1g contracted to 6s4p3d1f1g pattern {711111/2111/211/2/1}
 Group   3 Type H   : 5s2p1d contracted to 3s1p1d pattern {311/2/1}

Atom   0N    basis set group =>   1
Atom   1N    basis set group =>   1
Atom   2C    basis set group =>   2
Atom   3C    basis set group =>   2
Atom   4C    basis set group =>   2
Atom   5C    basis set group =>   2
Atom   6C    basis set group =>   2
Atom   7C    basis set group =>   2
Atom   8C    basis set group =>   2
Atom   9C    basis set group =>   2
Atom  10C    basis set group =>   2
Atom  11C    basis set group =>   2
Atom  12C    basis set group =>   2
Atom  13C    basis set group =>   2
Atom  14C    basis set group =>   2
Atom  15C    basis set group =>   2
Atom  16C    basis set group =>   2
Atom  17C    basis set group =>   2
Atom  18C    basis set group =>   2
Atom  19C    basis set group =>   2
Atom  20C    basis set group =>   2
Atom  21H    basis set group =>   3
Atom  22H    basis set group =>   3
Atom  23H    basis set group =>   3
Atom  24H    basis set group =>   3
Atom  25H    basis set group =>   3
Atom  26H    basis set group =>   3
Atom  27H    basis set group =>   3
Atom  28H    basis set group =>   3
Atom  29H    basis set group =>   3
Atom  30H    basis set group =>   3
Atom  31H    basis set group =>   3
Atom  32H    basis set group =>   3
Atom  33H    basis set group =>   3
Atom  34H    basis set group =>   3
Atom  35H    basis set group =>   3
Atom  36H    basis set group =>   3
Atom  37H    basis set group =>   3
Atom  38H    basis set group =>   3
Atom  39H    basis set group =>   3
Atom  40H    basis set group =>   3
Atom  41H    basis set group =>   3
Atom  42H    basis set group =>   3
Atom  43H    basis set group =>   3
Atom  44C    basis set group =>   2
Atom  45H    basis set group =>   3
Atom  46H    basis set group =>   3
Atom  47H    basis set group =>   3
Atom  48H    basis set group =>   3


           ************************************************************
           *        Program running with 8 parallel MPI-processes     *
           *              working on a common directory               *
           ************************************************************
------------------------------------------------------------------------------
                           ORCA GTO INTEGRAL CALCULATION
                           -- RI-GTO INTEGRALS CHOSEN --
------------------------------------------------------------------------------
------------------------------------------------------------------------------
                   ___                                                        
                  /   \      - P O W E R E D   B Y -                         
                 /     \                                                     
                 |  |  |   _    _      __       _____    __    __             
                 |  |  |  | |  | |    /  \     |  _  \  |  |  /  |          
                  \  \/   | |  | |   /    \    | | | |  |  | /  /          
                 / \  \   | |__| |  /  /\  \   | |_| |  |  |/  /          
                |  |  |   |  __  | /  /__\  \  |    /   |      \           
                |  |  |   | |  | | |   __   |  |    \   |  |\   \          
                \     /   | |  | | |  |  |  |  | |\  \  |  | \   \       
                 \___/    |_|  |_| |__|  |__|  |_| \__\ |__|  \__/        
                                                                              
                      - O R C A' S   B I G   F R I E N D -                    
                                      &                                       
                       - I N T E G R A L  F E E D E R -                       
                                                                              
 v1 FN, 2020, v2 2021                                                         
------------------------------------------------------------------------------


Reading SHARK input file desprop_oMe-Fentanyl_exoNProt_47.SHARKINP.tmp ... ok
----------------------
SHARK INTEGRAL PACKAGE
----------------------

Number of atoms                             ...     49
Number of basis functions                   ...    844
Number of shells                            ...    350
Maximum angular momentum                    ...      3
Integral batch strategy                     ... SHARK/LIBINT Hybrid
RI-J (if used) integral strategy            ... SPLIT-RIJ (Revised 2003 algorithm where possible)
Printlevel                                  ...      1
Contraction scheme used                     ... SEGMENTED contraction
Coulomb Range Separation                    ... NOT USED
Exchange Range Separation                   ... Long Range
   Mu parameter                             ...  0.300000
   Scaling (regular/separated)              ...  0.167000  0.833000
Finite Nucleus Model                        ... NOT USED
Auxiliary Coulomb fitting basis             ... AVAILABLE
   # of basis functions in Aux-J            ...   1375
   # of shells in Aux-J                     ...    465
   Maximum angular momentum in Aux-J        ...      4
Auxiliary J/K fitting basis                 ... NOT available
Auxiliary Correlation fitting basis         ... NOT available
Auxiliary 'external' fitting basis          ... NOT available
Integral threshold                          ...     2.500000e-11
Primitive cut-off                           ...     2.500000e-12
Primitive pair pre-selection threshold      ...     2.500000e-12

Calculating pre-screening integrals         ... done (  0.1 sec) Dimension = 350
Organizing shell pair data                  ... done (  0.7 sec)
Shell pair information
Total number of shell pairs                 ...     61425
Shell pairs after pre-screening             ...     48405
Total number of primitive shell pairs       ...    182068
Primitive shell pairs kept                  ...     96629
          la=0 lb=0:  14054 shell pairs
          la=1 lb=0:  14214 shell pairs
          la=1 lb=1:   3669 shell pairs
          la=2 lb=0:   6586 shell pairs
          la=2 lb=1:   3404 shell pairs
          la=2 lb=2:    825 shell pairs
          la=3 lb=0:   3080 shell pairs
          la=3 lb=1:   1624 shell pairs
          la=3 lb=2:    754 shell pairs
          la=3 lb=3:    195 shell pairs

Calculating one electron integrals          ... done (  0.1 sec)
Calculating RI/J V-Matrix + Cholesky decomp.... done (  0.2 sec)
Calculating Nuclear repulsion               ... done (  0.0 sec) ENN=   1945.523024832720 Eh

SHARK setup successfully completed in   1.7 seconds

Maximum memory used throughout the entire GTOINT-calculation: 69.6 MB
[1704171222.751327] [gra397:580  :0]          mpool.c:42   UCX  WARN  object 0xab87e80 was not returned to mpool ucp_requests
[1704171222.751371] [gra397:580  :0]          mpool.c:42   UCX  WARN  object 0xab88040 was not returned to mpool ucp_requests
[1704171222.751399] [gra397:580  :0]          mpool.c:42   UCX  WARN  object 0xab88200 was not returned to mpool ucp_requests
[1704171222.751412] [gra397:580  :0]          mpool.c:42   UCX  WARN  object 0xab883c0 was not returned to mpool ucp_requests
[1704171222.751422] [gra397:580  :0]          mpool.c:42   UCX  WARN  object 0xab88580 was not returned to mpool ucp_requests
[1704171222.751440] [gra397:580  :0]          mpool.c:42   UCX  WARN  object 0xab88740 was not returned to mpool ucp_requests
[1704171222.751450] [gra397:580  :0]          mpool.c:42   UCX  WARN  object 0xab88900 was not returned to mpool ucp_requests
[1704171222.751468] [gra397:580  :0]          mpool.c:42   UCX  WARN  object 0xab88ac0 was not returned to mpool ucp_requests
[1704171222.751479] [gra397:580  :0]          mpool.c:42   UCX  WARN  object 0xab88c80 was not returned to mpool ucp_requests
[1704171222.751489] [gra397:580  :0]          mpool.c:42   UCX  WARN  object 0xab88e40 was not returned to mpool ucp_requests
[1704171222.751499] [gra397:580  :0]          mpool.c:42   UCX  WARN  object 0xab89000 was not returned to mpool ucp_requests
[1704171222.751509] [gra397:580  :0]          mpool.c:42   UCX  WARN  object 0xab891c0 was not returned to mpool ucp_requests
[1704171222.825418] [gra397:583  :0]          mpool.c:42   UCX  WARN  object 0xc63fec0 was not returned to mpool ucp_requests
[1704171222.825459] [gra397:583  :0]          mpool.c:42   UCX  WARN  object 0xc640080 was not returned to mpool ucp_requests
[1704171222.825473] [gra397:583  :0]          mpool.c:42   UCX  WARN  object 0xc640240 was not returned to mpool ucp_requests
[1704171222.825485] [gra397:583  :0]          mpool.c:42   UCX  WARN  object 0xc640400 was not returned to mpool ucp_requests
[1704171222.825496] [gra397:583  :0]          mpool.c:42   UCX  WARN  object 0xc6405c0 was not returned to mpool ucp_requests
[1704171222.825507] [gra397:583  :0]          mpool.c:42   UCX  WARN  object 0xc640780 was not returned to mpool ucp_requests
[1704171222.825517] [gra397:583  :0]          mpool.c:42   UCX  WARN  object 0xc640940 was not returned to mpool ucp_requests
[1704171222.825528] [gra397:583  :0]          mpool.c:42   UCX  WARN  object 0xc640b00 was not returned to mpool ucp_requests
[1704171222.825539] [gra397:583  :0]          mpool.c:42   UCX  WARN  object 0xc640cc0 was not returned to mpool ucp_requests
[1704171222.825549] [gra397:583  :0]          mpool.c:42   UCX  WARN  object 0xc640e80 was not returned to mpool ucp_requests
[1704171222.825474] [gra397:581  :0]          mpool.c:42   UCX  WARN  object 0xb621b40 was not returned to mpool ucp_requests
[1704171222.825505] [gra397:581  :0]          mpool.c:42   UCX  WARN  object 0xb621d00 was not returned to mpool ucp_requests
[1704171222.825519] [gra397:581  :0]          mpool.c:42   UCX  WARN  object 0xb621ec0 was not returned to mpool ucp_requests
[1704171222.825530] [gra397:581  :0]          mpool.c:42   UCX  WARN  object 0xb622080 was not returned to mpool ucp_requests
[1704171222.825541] [gra397:581  :0]          mpool.c:42   UCX  WARN  object 0xb622240 was not returned to mpool ucp_requests
[1704171222.825552] [gra397:581  :0]          mpool.c:42   UCX  WARN  object 0xb622400 was not returned to mpool ucp_requests
[1704171222.825562] [gra397:581  :0]          mpool.c:42   UCX  WARN  object 0xb6225c0 was not returned to mpool ucp_requests
[1704171222.825573] [gra397:581  :0]          mpool.c:42   UCX  WARN  object 0xb622780 was not returned to mpool ucp_requests
[1704171222.825583] [gra397:581  :0]          mpool.c:42   UCX  WARN  object 0xb622940 was not returned to mpool ucp_requests
[1704171222.825593] [gra397:581  :0]          mpool.c:42   UCX  WARN  object 0xb622b00 was not returned to mpool ucp_requests
[1704171222.825604] [gra397:581  :0]          mpool.c:42   UCX  WARN  object 0xb622cc0 was not returned to mpool ucp_requests
[1704171222.825615] [gra397:581  :0]          mpool.c:42   UCX  WARN  object 0xb622e80 was not returned to mpool ucp_requests
[1704171222.825676] [gra397:582  :0]          mpool.c:42   UCX  WARN  object 0xb1e3200 was not returned to mpool ucp_requests
[1704171222.825706] [gra397:582  :0]          mpool.c:42   UCX  WARN  object 0xb1e33c0 was not returned to mpool ucp_requests
[1704171222.825719] [gra397:582  :0]          mpool.c:42   UCX  WARN  object 0xb1e3580 was not returned to mpool ucp_requests
[1704171222.825730] [gra397:582  :0]          mpool.c:42   UCX  WARN  object 0xb1e3740 was not returned to mpool ucp_requests
[1704171222.825740] [gra397:582  :0]          mpool.c:42   UCX  WARN  object 0xb1e3900 was not returned to mpool ucp_requests
[1704171222.825749] [gra397:582  :0]          mpool.c:42   UCX  WARN  object 0xb1e3ac0 was not returned to mpool ucp_requests
[1704171222.825759] [gra397:582  :0]          mpool.c:42   UCX  WARN  object 0xb1e3c80 was not returned to mpool ucp_requests
[1704171222.825769] [gra397:582  :0]          mpool.c:42   UCX  WARN  object 0xb1e3e40 was not returned to mpool ucp_requests
[1704171222.825779] [gra397:582  :0]          mpool.c:42   UCX  WARN  object 0xb1e4000 was not returned to mpool ucp_requests
[1704171222.825788] [gra397:582  :0]          mpool.c:42   UCX  WARN  object 0xb1e41c0 was not returned to mpool ucp_requests
[1704171222.828660] [gra397:579  :0]          mpool.c:42   UCX  WARN  object 0xc4b6040 was not returned to mpool ucp_requests
[1704171222.828695] [gra397:579  :0]          mpool.c:42   UCX  WARN  object 0xc4b6200 was not returned to mpool ucp_requests
[1704171222.828715] [gra397:579  :0]          mpool.c:42   UCX  WARN  object 0xc4b63c0 was not returned to mpool ucp_requests
[1704171222.828726] [gra397:579  :0]          mpool.c:42   UCX  WARN  object 0xc4b6580 was not returned to mpool ucp_requests
[1704171222.828742] [gra397:579  :0]          mpool.c:42   UCX  WARN  object 0xc4b6740 was not returned to mpool ucp_requests
[1704171222.828752] [gra397:579  :0]          mpool.c:42   UCX  WARN  object 0xc4b6900 was not returned to mpool ucp_requests
[1704171222.828766] [gra397:579  :0]          mpool.c:42   UCX  WARN  object 0xc4b6ac0 was not returned to mpool ucp_requests
[1704171222.828780] [gra397:579  :0]          mpool.c:42   UCX  WARN  object 0xc4b6c80 was not returned to mpool ucp_requests
[1704171222.828791] [gra397:579  :0]          mpool.c:42   UCX  WARN  object 0xc4b6e40 was not returned to mpool ucp_requests
[1704171222.828800] [gra397:579  :0]          mpool.c:42   UCX  WARN  object 0xc4b7000 was not returned to mpool ucp_requests
[1704171222.828810] [gra397:579  :0]          mpool.c:42   UCX  WARN  object 0xc4b71c0 was not returned to mpool ucp_requests
[1704171222.829933] [gra397:577  :0]          mpool.c:42   UCX  WARN  object 0xbf32340 was not returned to mpool ucp_requests
[1704171222.830065] [gra397:577  :0]          mpool.c:42   UCX  WARN  object 0xbf32500 was not returned to mpool ucp_requests
[1704171222.830224] [gra397:577  :0]          mpool.c:42   UCX  WARN  object 0xbf326c0 was not returned to mpool ucp_requests
[1704171222.830337] [gra397:577  :0]          mpool.c:42   UCX  WARN  object 0xbf32880 was not returned to mpool ucp_requests
[1704171222.830449] [gra397:577  :0]          mpool.c:42   UCX  WARN  object 0xbf32a40 was not returned to mpool ucp_requests
[1704171222.830561] [gra397:577  :0]          mpool.c:42   UCX  WARN  object 0xbf32c00 was not returned to mpool ucp_requests
[1704171222.830673] [gra397:577  :0]          mpool.c:42   UCX  WARN  object 0xbf32dc0 was not returned to mpool ucp_requests
[1704171222.830784] [gra397:577  :0]          mpool.c:42   UCX  WARN  object 0xbf32f80 was not returned to mpool ucp_requests
[1704171222.926322] [gra397:578  :0]          mpool.c:42   UCX  WARN  object 0xb1e6fc0 was not returned to mpool ucp_requests
[1704171222.926371] [gra397:578  :0]          mpool.c:42   UCX  WARN  object 0xb1e7180 was not returned to mpool ucp_requests
[1704171222.926403] [gra397:578  :0]          mpool.c:42   UCX  WARN  object 0xb1e7340 was not returned to mpool ucp_requests
[1704171222.926418] [gra397:578  :0]          mpool.c:42   UCX  WARN  object 0xb1e7500 was not returned to mpool ucp_requests
[1704171222.926440] [gra397:578  :0]          mpool.c:42   UCX  WARN  object 0xb1e76c0 was not returned to mpool ucp_requests
[1704171222.926454] [gra397:578  :0]          mpool.c:42   UCX  WARN  object 0xb1e7880 was not returned to mpool ucp_requests
[1704171222.926470] [gra397:578  :0]          mpool.c:42   UCX  WARN  object 0xb1e7a40 was not returned to mpool ucp_requests
[1704171222.926482] [gra397:578  :0]          mpool.c:42   UCX  WARN  object 0xb1e7c00 was not returned to mpool ucp_requests
[1704171222.926494] [gra397:578  :0]          mpool.c:42   UCX  WARN  object 0xb1e7dc0 was not returned to mpool ucp_requests
[1704171222.926506] [gra397:578  :0]          mpool.c:42   UCX  WARN  object 0xb1e7f80 was not returned to mpool ucp_requests
[1704171222.926518] [gra397:578  :0]          mpool.c:42   UCX  WARN  object 0xb1e8140 was not returned to mpool ucp_requests


           ************************************************************
           *        Program running with 8 parallel MPI-processes     *
           *              working on a common directory               *
           ************************************************************
-------------------------------------------------------------------------------
                                 ORCA SCF
-------------------------------------------------------------------------------

------------
SCF SETTINGS
------------
Hamiltonian:
 Density Functional     Method          .... DFT(GTOs)
 Exchange Functional    Exchange        .... WB97X-V
 Correlation Functional Correlation     .... WB97X-V
 Gradients option       PostSCFGGA      .... off
 Hybrid DFT is turned on
   Fraction HF Exchange ScalHFX         ....  0.167000
   Scaling of DF-GGA-X  ScalDFX         ....  0.000000
   Scaling of DF-GGA-C  ScalDFC         ....  1.000000
   Scaling of DF-LDA-C  ScalLDAC        ....  1.000000
   Perturbative correction              ....  0.000000
   Density functional embedding theory  .... OFF
 Long-range corrected/Screened/Range-Separated Hybrid DFT is turned on
   Amount of maximum screened exact exchange              ....  0.833000
   Range separation parameter mu (erf(mu*r12)/r12)        ....  0.300000
 RI-approximation to the Coulomb term is turned on
   Number of AuxJ basis functions       .... 1375
   RIJ-COSX (HFX calculated with COS-X)).... on


General Settings:
 Integral files         IntName         .... desprop_oMe-Fentanyl_exoNProt_47
 Hartree-Fock type      HFTyp           .... RHF
 Total Charge           Charge          ....    1
 Multiplicity           Mult            ....    1
 Number of Electrons    NEL             ....  160
 Basis Dimension        Dim             ....  844
 Nuclear Repulsion      ENuc            ....   1945.5230248327 Eh

Convergence Acceleration:
 DIIS                   CNVDIIS         .... on
   Start iteration      DIISMaxIt       ....    12
   Startup error        DIISStart       ....  0.200000
   # of expansion vecs  DIISMaxEq       ....     5
   Bias factor          DIISBfac        ....   1.050
   Max. coefficient     DIISMaxC        ....  10.000
 Trust-Rad. Augm. Hess. CNVTRAH         .... auto
   Auto Start mean grad. ratio tolernc. ....  1.125000
   Auto Start start iteration           ....    20
   Auto Start num. interpolation iter.  ....    10
   Max. Number of Micro iterations      ....    16
   Max. Number of Macro iterations      .... Maxiter - #DIIS iter
   Number of Davidson start vectors     ....     2
   Converg. threshold I  (grad. norm)   ....   1.000e-05
   Converg. threshold II (energy diff.) ....   1.000e-08
   Grad. Scal. Fac. for Micro threshold ....   0.100
   Minimum threshold for Micro iter.    ....   0.010
   NR start threshold (gradient norm)   ....   0.001
   Initial trust radius                 ....   0.400
   Minimum AH scaling param. (alpha)    ....   1.000
   Maximum AH scaling param. (alpha)    .... 1000.000
   Orbital update algorithm             .... Taylor
   White noise on init. David. guess    .... on
   Maximum white noise                  ....   0.010
   Quad. conv. algorithm                .... NR
 SOSCF                  CNVSOSCF        .... on
   Start iteration      SOSCFMaxIt      ....   150
   Startup grad/error   SOSCFStart      ....  0.003300
 Level Shifting         CNVShift        .... on
   Level shift para.    LevelShift      ....    0.2500
   Turn off err/grad.   ShiftErr        ....    0.0010
 Zerner damping         CNVZerner       .... off
 Static damping         CNVDamp         .... on
   Fraction old density DampFac         ....    0.7000
   Max. Damping (<1)    DampMax         ....    0.9800
   Min. Damping (>=0)   DampMin         ....    0.0000
   Turn off err/grad.   DampErr         ....    0.1000
 Fernandez-Rico         CNVRico         .... off

SCF Procedure:
 Maximum # iterations   MaxIter         ....   125
 SCF integral mode      SCFMode         .... Direct
   Integral package                     .... SHARK and LIBINT hybrid scheme
 Reset frequency        DirectResetFreq ....    20
 Integral Threshold     Thresh          ....  2.500e-11 Eh
 Primitive CutOff       TCut            ....  2.500e-12 Eh

Convergence Tolerance:
 Convergence Check Mode ConvCheckMode   .... Total+1el-Energy
 Convergence forced     ConvForced      .... 0
 Energy Change          TolE            ....  1.000e-08 Eh
 1-El. energy change                    ....  1.000e-05 Eh
 Orbital Gradient       TolG            ....  1.000e-05
 Orbital Rotation angle TolX            ....  1.000e-05
 DIIS Error             TolErr          ....  5.000e-07


Diagonalization of the overlap matrix:
Smallest eigenvalue                        ... 4.905e-06
Time for diagonalization                   ...    0.241 sec
Threshold for overlap eigenvalues          ... 1.000e-08
Number of eigenvalues below threshold      ... 0
Time for construction of square roots      ...    0.130 sec
Total time needed                          ...    0.378 sec

Time for model grid setup =    0.466 sec

------------------------------
INITIAL GUESS: MODEL POTENTIAL
------------------------------
Loading Hartree-Fock densities                     ... done
Calculating cut-offs                               ... done
Initializing the effective Hamiltonian             ... done
Setting up the integral package (SHARK)            ... done
Starting the Coulomb interaction                   ... done (   1.0 sec)
Reading the grid                                   ... done
Mapping shells                                     ... done
Starting the XC term evaluation                    ... done (   0.6 sec)
  promolecular density results
     # of electrons  =    160.983077623
     EX              =    -82.417193301
     EC              =     -6.578313517
     EX+EC           =    -88.995506817
Transforming the Hamiltonian                       ... done (   0.1 sec)
Diagonalizing the Hamiltonian                      ... done (   0.2 sec)
Back transforming the eigenvectors                 ... done (   0.0 sec)
Now organizing SCF variables                       ... done
                      ------------------
                      INITIAL GUESS DONE (   2.5 sec)
                      ------------------
-------------------
DFT GRID GENERATION
-------------------

General Integration Accuracy     IntAcc      ... 4.959
Radial Grid Type                 RadialGrid  ... OptM3 with GC (2021)
Angular Grid (max. ang.)         AngularGrid ... 6 (Lebedev-590)
Angular grid pruning method      GridPruning ... 4 (adaptive)
Weight generation scheme         WeightScheme... Becke
Basis function cutoff            BFCut       ... 1.0000e-11
Integration weight cutoff        WCut        ... 1.0000e-14
Angular grids for H and He will be reduced by one unit
Partially contracted basis set               ... off
Rotationally invariant grid construction     ... off

Total number of grid points                  ...   533826
Total number of batches                      ...     8365
Average number of points per batch           ...       63
Average number of grid points per atom       ...    10894
Time for grid setup =    7.642 sec

--------------------
COSX GRID GENERATION
--------------------

GRIDX 1
-------
General Integration Accuracy     IntAcc      ... 4.020
Radial Grid Type                 RadialGrid  ... OptM3 with GC (2021)
Angular Grid (max. ang.)         AngularGrid ... 2 (Lebedev-110)
Angular grid pruning method      GridPruning ... 4 (adaptive)
Weight generation scheme         WeightScheme... Becke
Basis function cutoff            BFCut       ... 1.0000e-11
Integration weight cutoff        WCut        ... 1.0000e-14
Angular grids for H and He will be reduced by one unit
Partially contracted basis set               ... on
Rotationally invariant grid construction     ... off

Total number of grid points                  ...    57242
Total number of batches                      ...      919
Average number of points per batch           ...       62
Average number of grid points per atom       ...     1168
UseSFitting                                  ... on

GRIDX 2
-------
General Integration Accuracy     IntAcc      ... 4.338
Radial Grid Type                 RadialGrid  ... OptM3 with GC (2021)
Angular Grid (max. ang.)         AngularGrid ... 3 (Lebedev-194)
Angular grid pruning method      GridPruning ... 4 (adaptive)
Weight generation scheme         WeightScheme... Becke
Basis function cutoff            BFCut       ... 1.0000e-11
Integration weight cutoff        WCut        ... 1.0000e-14
Angular grids for H and He will be reduced by one unit
Partially contracted basis set               ... on
Rotationally invariant grid construction     ... off

Total number of grid points                  ...   124178
Total number of batches                      ...     1965
Average number of points per batch           ...       63
Average number of grid points per atom       ...     2534
UseSFitting                                  ... on

GRIDX 3
-------
General Integration Accuracy     IntAcc      ... 4.871
Radial Grid Type                 RadialGrid  ... OptM3 with GC (2021)
Angular Grid (max. ang.)         AngularGrid ... 4 (Lebedev-302)
Angular grid pruning method      GridPruning ... 4 (adaptive)
Weight generation scheme         WeightScheme... Becke
Basis function cutoff            BFCut       ... 1.0000e-11
Integration weight cutoff        WCut        ... 1.0000e-14
Angular grids for H and He will be reduced by one unit
Partially contracted basis set               ... on
Rotationally invariant grid construction     ... off

Total number of grid points                  ...   237125
Total number of batches                      ...     3727
Average number of points per batch           ...       63
Average number of grid points per atom       ...     4839
UseSFitting                                  ... on

Time for X-Grid setup             =    5.640 sec

--------------
SCF ITERATIONS
--------------
ITER       Energy         Delta-E        Max-DP      RMS-DP      [F,P]     Damp
               ***  Starting incremental Fock matrix formation  ***
  0   -888.1824066298   0.000000000000 0.05006459  0.00063131  0.3107731 0.7000
  1   -888.2373441436  -0.054937513804 0.04342625  0.00055905  0.2098768 0.7000
                               ***Turning on DIIS***
  2   -888.2699970551  -0.032652911433 0.03597236  0.00043156  0.1430229 0.7000
  3   -888.2914520123  -0.021454957210 0.11204738  0.00115139  0.0981034 0.0000
  4   -888.3424757834  -0.051023771161 0.01482591  0.00015285  0.0056066 0.0000
  5   -888.3428536265  -0.000377843063 0.00518926  0.00006491  0.0034687 0.0000
                      *** Initiating the SOSCF procedure ***
                           *** Shutting down DIIS ***
                      *** Re-Reading the Fockian *** 
                      *** Removing any level shift *** 
ITER      Energy       Delta-E        Grad      Rot      Max-DP    RMS-DP
  6   -888.34294558  -0.0000919510  0.000362  0.000362  0.004640  0.000057
               *** Restarting incremental Fock matrix formation ***
  7   -888.34296863  -0.0000230476  0.000147  0.000354  0.000762  0.000010
  8   -888.34296931  -0.0000006897  0.000079  0.000155  0.000473  0.000005
  9   -888.34296974  -0.0000004207  0.000021  0.000072  0.000381  0.000005
 10   -888.34296974  -0.0000000031  0.000009  0.000023  0.000248  0.000003
 11   -888.34296978  -0.0000000405  0.000003  0.000009  0.000402  0.000004
                  ***Gradient check signals convergence***
              ***Rediagonalizing the Fockian in SOSCF/NRSCF***

               *****************************************************
               *                     SUCCESS                       *
               *           SCF CONVERGED AFTER  12 CYCLES          *
               *****************************************************

Old exchange energy                            =    -41.941378064 Eh
New exchange energy                            =    -41.941375396 Eh
Exchange energy change after final integration =      0.000002668 Eh
Total energy after final integration           =   -888.342967130 Eh
Final COS-X integration done in                =   151.391 sec

----------------
TOTAL SCF ENERGY
----------------

Total Energy       :         -888.34296713 Eh          -24173.04107 eV

Components:
Nuclear Repulsion  :         1945.52302483 Eh           52940.37294 eV
Electronic Energy  :        -2833.86599196 Eh          -77113.41401 eV
One Electron Energy:        -5044.69776173 Eh         -137273.20493 eV
Two Electron Energy:         2210.83176977 Eh           60159.79092 eV
Max COSX asymmetry :            0.00000037 Eh               0.00001 eV

Virial components:
Potential Energy   :        -1772.71803901 Eh          -48238.11022 eV
Kinetic Energy     :          884.37507188 Eh           24065.06915 eV
Virial Ratio       :            2.00448667


DFT components:
N(Alpha)           :       79.999976014438 electrons
N(Beta)            :       79.999976014438 electrons
N(Total)           :      159.999952028876 electrons
E(X)               :      -84.455237496145 Eh       
E(C)               :       -6.582526810535 Eh       
E(XC)              :      -91.037764306681 Eh       
DFET-embed. en.    :        0.000000000000 Eh       

---------------
SCF CONVERGENCE
---------------

  Last Energy change         ...   -1.8935e-08  Tolerance :   1.0000e-08
  Last MAX-Density change    ...    1.2846e-15  Tolerance :   1.0000e-07
  Last RMS-Density change    ...    1.2254e-17  Tolerance :   5.0000e-09
  Last Orbital Gradient      ...    1.2034e-06  Tolerance :   1.0000e-05
[...]
 48:    862.42   0.000131    0.66  0.000048  ( 0.005554 -0.002710 -0.003051)
 49:    883.86   0.003588   18.13  0.001267  (-0.033006 -0.001317  0.013260)
 50:    894.16   0.000582    2.94  0.000203  (-0.009659 -0.000704  0.010449)
 51:    905.58   0.000153    0.77  0.000053  (-0.000003 -0.006615  0.002970)
 52:    923.41   0.000259    1.31  0.000088  (-0.007039  0.000591  0.006132)
 53:    940.21   0.001998   10.10  0.000663  (-0.022915  0.008326  0.008294)
 54:    953.25   0.002170   10.97  0.000710  ( 0.024177  0.003218 -0.010752)
 55:    975.65   0.000591    2.99  0.000189  ( 0.013651  0.000960 -0.001378)
 56:    987.49   0.000480    2.43  0.000152  ( 0.002655 -0.011966 -0.001186)
 57:    992.52   0.000040    0.20  0.000013  (-0.001265  0.000855 -0.003221)
 58:   1016.10   0.000391    1.98  0.000120  ( 0.004736 -0.000644  0.009865)
 59:   1019.63   0.002848   14.39  0.000872  ( 0.021086 -0.020559 -0.002080)
 60:   1025.14   0.000209    1.06  0.000064  (-0.000019  0.007962 -0.000546)
 61:   1026.14   0.001662    8.40  0.000506  ( 0.000914 -0.021496 -0.006534)
 62:   1031.19   0.000085    0.43  0.000026  ( 0.000541 -0.001991  0.004621)
 63:   1036.36   0.000006    0.03  0.000002  (-0.000433  0.001084 -0.000625)
 64:   1043.93   0.000003    0.02  0.000001  (-0.000424  0.000820  0.000376)
 65:   1046.48   0.001416    7.15  0.000422  ( 0.014194 -0.001187  0.014808)
 66:   1068.35   0.000269    1.36  0.000079  ( 0.008115  0.003529 -0.000638)
 67:   1071.21   0.004015   20.29  0.001170  (-0.031542  0.007249  0.011050)
 68:   1073.32   0.000312    1.58  0.000091  (-0.001098  0.007552  0.005695)
 69:   1088.68   0.000772    3.90  0.000221  (-0.006446  0.009437 -0.009522)
 70:   1114.70   0.000378    1.91  0.000106  (-0.000412  0.007804  0.006692)
 71:   1128.63   0.003404   17.20  0.000941  ( 0.026344  0.008743 -0.013064)
 72:   1132.33   0.007486   37.83  0.002063  ( 0.045090  0.001140  0.005353)
 73:   1156.63   0.001108    5.60  0.000299  ( 0.014643 -0.005725  0.007199)
 74:   1168.94   0.001624    8.21  0.000434  (-0.001860 -0.001665 -0.020675)
 75:   1183.74   0.000140    0.71  0.000037  (-0.001852 -0.000759  0.005733)
 76:   1190.02   0.000444    2.25  0.000116  ( 0.008400  0.005205 -0.004342)
 77:   1205.61   0.006578   33.24  0.001703  ( 0.017497  0.037286 -0.002509)
 78:   1213.74   0.000343    1.73  0.000088  (-0.008284  0.004404  0.000286)
 79:   1216.86   0.001892    9.56  0.000485  (-0.014044  0.016048  0.005523)
 80:   1218.40   0.000929    4.69  0.000238  ( 0.008851  0.011229 -0.005781)
 81:   1220.44   0.001213    6.13  0.000310  ( 0.010788  0.012340  0.006451)
 82:   1243.46   0.000220    1.11  0.000055  (-0.002546 -0.006295  0.002997)
 83:   1264.81   0.001805    9.12  0.000445  ( 0.007281 -0.014763  0.013206)
 84:   1271.37   0.000667    3.37  0.000164  ( 0.007445 -0.006572 -0.008076)
 85:   1280.94   0.000830    4.20  0.000202  (-0.013087  0.003479  0.004345)
 86:   1288.84   0.003082   15.57  0.000746  ( 0.021796 -0.015934 -0.004144)
 87:   1303.61   0.000309    1.56  0.000074  ( 0.003654  0.000439  0.007769)
 88:   1318.29   0.000509    2.57  0.000121  (-0.006461 -0.004743  0.007504)
 89:   1323.12   0.002023   10.22  0.000477  ( 0.021553 -0.003096  0.001751)
 90:   1327.05   0.002824   14.27  0.000664  ( 0.019892 -0.002280 -0.016221)
 91:   1341.26   0.000383    1.93  0.000089  ( 0.004637 -0.007343  0.003691)
 92:   1356.80   0.001848    9.34  0.000425  (-0.014486  0.014354  0.003018)
 93:   1366.24   0.000307    1.55  0.000070  (-0.004134  0.000227 -0.007282)
 94:   1377.26   0.001393    7.04  0.000316  (-0.007451  0.005958  0.014986)
 95:   1384.03   0.001841    9.30  0.000415  (-0.011176  0.016995 -0.001149)
 96:   1395.10   0.000763    3.86  0.000171  (-0.003040  0.012277  0.003271)
 97:   1401.59   0.001332    6.73  0.000297  ( 0.009035  0.013811 -0.004928)
 98:   1413.40   0.012407   62.70  0.002739  (-0.051163  0.010882 -0.001821)
 99:   1423.33   0.006734   34.03  0.001476  ( 0.029041 -0.019588 -0.015787)
100:   1432.40   0.003229   16.32  0.000703  (-0.021403  0.008037  0.013444)
101:   1438.18   0.003002   15.17  0.000651  (-0.000886 -0.025342  0.002913)
102:   1447.14   0.002212   11.18  0.000477  (-0.018006  0.011424  0.004717)
103:   1489.22   0.000575    2.91  0.000121  (-0.007287 -0.007201  0.003945)
104:   1497.62   0.003055   15.44  0.000637  (-0.006078  0.009290  0.022657)
105:   1503.03   0.001380    6.98  0.000287  (-0.003545 -0.016380  0.002386)
106:   1503.69   0.000603    3.05  0.000125  (-0.000065 -0.009076 -0.006534)
107:   1507.24   0.001549    7.83  0.000321  (-0.005015 -0.017190  0.000280)
108:   1508.60   0.001863    9.41  0.000385  ( 0.005105  0.005243  0.018214)
109:   1517.21   0.000459    2.32  0.000094  (-0.007067 -0.006647 -0.000589)
110:   1520.90   0.003962   20.02  0.000813  ( 0.010424 -0.009518  0.024771)
111:   1526.78   0.003095   15.64  0.000633  (-0.024255 -0.005649  0.003533)
112:   1540.21   0.006202   31.34  0.001257  ( 0.033983 -0.000879 -0.010052)
113:   1553.49   0.002782   14.06  0.000559  (-0.022026 -0.001268  0.008487)
114:   1560.79   0.004945   24.99  0.000989  ( 0.013263 -0.005685  0.027938)
115:   1665.90   0.000230    1.16  0.000043  ( 0.002768 -0.001735  0.005694)
116:   1670.44   0.015589   78.78  0.002912  (-0.016740 -0.045516 -0.023673)
117:   1679.02   0.005323   26.90  0.000989  (-0.007638 -0.025098 -0.017350)
118:   1689.34   0.001684    8.51  0.000311  (-0.012650  0.006635  0.010347)
119:   1709.56   0.000665    3.36  0.000121  ( 0.005567  0.009106  0.002739)
120:   3014.37   0.015681   79.25  0.001623  ( 0.038743 -0.007943 -0.007700)
121:   3017.03   0.002513   12.70  0.000260  (-0.000263  0.001618 -0.016039)
122:   3021.79   0.023317  117.83  0.002408  ( 0.044343  0.012978 -0.016531)
123:   3056.76   0.002885   14.58  0.000295  (-0.011177  0.000590 -0.013011)
124:   3073.47   0.062466  315.68  0.006342  (-0.065789 -0.042112 -0.015517)
125:   3079.99   0.016534   83.56  0.001675  ( 0.033949  0.021203 -0.008552)
126:   3091.15   0.000861    4.35  0.000087  ( 0.008475  0.003599  0.001465)
127:   3100.43   0.000718    3.63  0.000072  (-0.006911  0.001263 -0.004790)
128:   3106.03   0.002246   11.35  0.000226  (-0.006104 -0.010613 -0.008704)
129:   3108.82   0.003410   17.23  0.000342  ( 0.012631 -0.010150  0.008929)
130:   3118.31   0.001614    8.16  0.000162  ( 0.001985 -0.012349 -0.002256)
131:   3133.47   0.001912    9.66  0.000190  ( 0.006228 -0.009217  0.008164)
132:   3136.36   0.001275    6.44  0.000127  ( 0.007236 -0.008545 -0.001214)
133:   3148.91   0.000997    5.04  0.000099  ( 0.004641 -0.008261  0.002997)
134:   3150.52   0.002127   10.75  0.000211  (-0.012637  0.002873 -0.006536)
135:   3166.89   0.002042   10.32  0.000201  (-0.000896 -0.007462 -0.012029)
136:   3168.91   0.000870    4.40  0.000086  (-0.009091 -0.001059  0.001387)
137:   3188.25   0.000746    3.77  0.000073  ( 0.005734  0.001899 -0.006041)
138:   3189.84   0.000553    2.79  0.000054  (-0.006159  0.002544 -0.003109)
139:   3203.66   0.000418    2.11  0.000041  ( 0.005959 -0.001310  0.001862)
140:   3208.29   0.000299    1.51  0.000029  ( 0.004261  0.002536 -0.002115)
141:   3213.23   0.001103    5.57  0.000107  ( 0.003088 -0.003998  0.009034)
142:   3213.85   0.000241    1.22  0.000023  (-0.004268 -0.001596 -0.001629)
143:   3224.09   0.000757    3.83  0.000073  (-0.007993 -0.003062  0.000245)
144:   3225.26   0.000576    2.91  0.000056  (-0.007443 -0.000322 -0.000526)
145:   3236.28   0.000145    0.73  0.000014  (-0.000868  0.001820 -0.003146)
146:   3466.78   0.009149   46.23  0.000824  (-0.005277  0.014452  0.024224)

* The epsilon (eps) is given for a Dirac delta lineshape.
** The dipole moment derivative (T) already includes vibrational overlap.

The first frequency considered to be a vibration is 6
The total number of vibrations considered is 141


--------------------------
THERMOCHEMISTRY AT 298.15K
--------------------------

Temperature         ... 298.15 K
Pressure            ... 1.00 atm
Total Mass          ... 295.45 AMU

Throughout the following assumptions are being made:
  (1) The electronic state is orbitally nondegenerate
  (2) There are no thermally accessible electronically excited states
  (3) Hindered rotations indicated by low frequency modes are not
      treated as such but are treated as vibrations and this may
      cause some error
  (4) All equations used are the standard statistical mechanics
      equations for an ideal gas
  (5) All vibrations are strictly harmonic

freq.      33.64  E(vib)   ...       0.55 
freq.      43.14  E(vib)   ...       0.53 
freq.      49.20  E(vib)   ...       0.52 
freq.      84.02  E(vib)   ...       0.48 
freq.      88.06  E(vib)   ...       0.48 
freq.     103.05  E(vib)   ...       0.46 
freq.     118.22  E(vib)   ...       0.44 
freq.     119.86  E(vib)   ...       0.44 
freq.     134.41  E(vib)   ...       0.42 
freq.     171.83  E(vib)   ...       0.38 
freq.     181.25  E(vib)   ...       0.37 
freq.     204.53  E(vib)   ...       0.35 
freq.     232.54  E(vib)   ...       0.32 
freq.     275.73  E(vib)   ...       0.28 
freq.     287.09  E(vib)   ...       0.27 
freq.     307.54  E(vib)   ...       0.26 
freq.     337.85  E(vib)   ...       0.24 
freq.     360.69  E(vib)   ...       0.22 
freq.     371.57  E(vib)   ...       0.21 
freq.     387.07  E(vib)   ...       0.20 
freq.     423.45  E(vib)   ...       0.18 
freq.     437.58  E(vib)   ...       0.17 
freq.     453.19  E(vib)   ...       0.16 
freq.     469.20  E(vib)   ...       0.16 
freq.     497.85  E(vib)   ...       0.14 
freq.     510.18  E(vib)   ...       0.14 
freq.     522.35  E(vib)   ...       0.13 
freq.     536.88  E(vib)   ...       0.12 
freq.     567.30  E(vib)   ...       0.11 
freq.     618.16  E(vib)   ...       0.09 
freq.     631.15  E(vib)   ...       0.09 
freq.     637.90  E(vib)   ...       0.09 
freq.     720.48  E(vib)   ...       0.07 
freq.     734.07  E(vib)   ...       0.06 
freq.     740.54  E(vib)   ...       0.06 
freq.     775.65  E(vib)   ...       0.05 
freq.     784.29  E(vib)   ...       0.05 
freq.     790.32  E(vib)   ...       0.05 
freq.     793.15  E(vib)   ...       0.05 
freq.     802.95  E(vib)   ...       0.05 
freq.     830.35  E(vib)   ...       0.04 
freq.     849.66  E(vib)   ...       0.04 
freq.     862.42  E(vib)   ...       0.04 
freq.     883.86  E(vib)   ...       0.04 
freq.     894.16  E(vib)   ...       0.03 
freq.     905.58  E(vib)   ...       0.03 
freq.     923.41  E(vib)   ...       0.03 
freq.     940.21  E(vib)   ...       0.03 
freq.     953.25  E(vib)   ...       0.03 
freq.     975.65  E(vib)   ...       0.03 
freq.     987.49  E(vib)   ...       0.02 
freq.     992.52  E(vib)   ...       0.02 
freq.    1016.10  E(vib)   ...       0.02 
freq.    1019.63  E(vib)   ...       0.02 
freq.    1025.14  E(vib)   ...       0.02 
freq.    1026.14  E(vib)   ...       0.02 
freq.    1031.19  E(vib)   ...       0.02 
freq.    1036.36  E(vib)   ...       0.02 
freq.    1043.93  E(vib)   ...       0.02 
freq.    1046.48  E(vib)   ...       0.02 
freq.    1068.35  E(vib)   ...       0.02 
freq.    1071.21  E(vib)   ...       0.02 
freq.    1073.32  E(vib)   ...       0.02 
freq.    1088.68  E(vib)   ...       0.02 
freq.    1114.70  E(vib)   ...       0.01 
freq.    1128.63  E(vib)   ...       0.01 
freq.    1132.33  E(vib)   ...       0.01 
freq.    1156.63  E(vib)   ...       0.01 
freq.    1168.94  E(vib)   ...       0.01 
freq.    1183.74  E(vib)   ...       0.01 
freq.    1190.02  E(vib)   ...       0.01 
freq.    1205.61  E(vib)   ...       0.01 
freq.    1213.74  E(vib)   ...       0.01 
freq.    1216.86  E(vib)   ...       0.01 
freq.    1218.40  E(vib)   ...       0.01 
freq.    1220.44  E(vib)   ...       0.01 
freq.    1243.46  E(vib)   ...       0.01 
freq.    1264.81  E(vib)   ...       0.01 
freq.    1271.37  E(vib)   ...       0.01 
freq.    1280.94  E(vib)   ...       0.01 
freq.    1288.84  E(vib)   ...       0.01 
freq.    1303.61  E(vib)   ...       0.01 
freq.    1318.29  E(vib)   ...       0.01 
freq.    1323.12  E(vib)   ...       0.01 
freq.    1327.05  E(vib)   ...       0.01 
freq.    1341.26  E(vib)   ...       0.01 
freq.    1356.80  E(vib)   ...       0.01 
freq.    1366.24  E(vib)   ...       0.01 
freq.    1377.26  E(vib)   ...       0.01 
freq.    1384.03  E(vib)   ...       0.00 
freq.    1395.10  E(vib)   ...       0.00 
freq.    1401.59  E(vib)   ...       0.00 
freq.    1413.40  E(vib)   ...       0.00 
freq.    1423.33  E(vib)   ...       0.00 
freq.    1432.40  E(vib)   ...       0.00 
freq.    1438.18  E(vib)   ...       0.00 
freq.    1447.14  E(vib)   ...       0.00 
freq.    1489.22  E(vib)   ...       0.00 
freq.    1497.62  E(vib)   ...       0.00 
freq.    1503.03  E(vib)   ...       0.00 
freq.    1503.69  E(vib)   ...       0.00 
freq.    1507.24  E(vib)   ...       0.00 
freq.    1508.60  E(vib)   ...       0.00 
freq.    1517.21  E(vib)   ...       0.00 
freq.    1520.90  E(vib)   ...       0.00 
freq.    1526.78  E(vib)   ...       0.00 
freq.    1540.21  E(vib)   ...       0.00 
freq.    1553.49  E(vib)   ...       0.00 
freq.    1560.79  E(vib)   ...       0.00 
freq.    1665.90  E(vib)   ...       0.00 
freq.    1670.44  E(vib)   ...       0.00 
freq.    1679.02  E(vib)   ...       0.00 
freq.    1689.34  E(vib)   ...       0.00 
freq.    1709.56  E(vib)   ...       0.00 
freq.    3014.37  E(vib)   ...       0.00 
freq.    3017.03  E(vib)   ...       0.00 
freq.    3021.79  E(vib)   ...       0.00 
freq.    3056.76  E(vib)   ...       0.00 
freq.    3073.47  E(vib)   ...       0.00 
freq.    3079.99  E(vib)   ...       0.00 
freq.    3091.15  E(vib)   ...       0.00 
freq.    3100.43  E(vib)   ...       0.00 
freq.    3106.03  E(vib)   ...       0.00 
freq.    3108.82  E(vib)   ...       0.00 
freq.    3118.31  E(vib)   ...       0.00 
freq.    3133.47  E(vib)   ...       0.00 
freq.    3136.36  E(vib)   ...       0.00 
freq.    3148.91  E(vib)   ...       0.00 
freq.    3150.52  E(vib)   ...       0.00 
freq.    3166.89  E(vib)   ...       0.00 
freq.    3168.91  E(vib)   ...       0.00 
freq.    3188.25  E(vib)   ...       0.00 
freq.    3189.84  E(vib)   ...       0.00 
freq.    3203.66  E(vib)   ...       0.00 
freq.    3208.29  E(vib)   ...       0.00 
freq.    3213.23  E(vib)   ...       0.00 
freq.    3213.85  E(vib)   ...       0.00 
freq.    3224.09  E(vib)   ...       0.00 
freq.    3225.26  E(vib)   ...       0.00 
freq.    3236.28  E(vib)   ...       0.00 
freq.    3466.78  E(vib)   ...       0.00 

------------
INNER ENERGY
------------

The inner energy is: U= E(el) + E(ZPE) + E(vib) + E(rot) + E(trans)
    E(el)   - is the total energy from the electronic structure calculation
              = E(kin-el) + E(nuc-el) + E(el-el) + E(nuc-nuc)
    E(ZPE)  - the the zero temperature vibrational energy from the frequency calculation
    E(vib)  - the the finite temperature correction to E(ZPE) due to population
              of excited vibrational states
    E(rot)  - is the rotational thermal energy
    E(trans)- is the translational thermal energy

Summary of contributions to the inner energy U:
Electronic energy                ...   -888.46958673 Eh
Zero point energy                ...      0.44227681 Eh     277.53 kcal/mol
Thermal vibrational correction   ...      0.01653929 Eh      10.38 kcal/mol
Thermal rotational correction    ...      0.00141627 Eh       0.89 kcal/mol
Thermal translational correction ...      0.00141627 Eh       0.89 kcal/mol
-----------------------------------------------------------------------
Total thermal energy                   -888.00793810 Eh


Summary of corrections to the electronic energy:
(perhaps to be used in another calculation)
Total thermal correction                  0.01937183 Eh      12.16 kcal/mol
Non-thermal (ZPE) correction              0.44227681 Eh     277.53 kcal/mol
-----------------------------------------------------------------------
Total correction                          0.46164864 Eh     289.69 kcal/mol


--------
ENTHALPY
--------

The enthalpy is H = U + kB*T
                kB is Boltzmann's constant
Total free energy                 ...   -888.00793810 Eh 
Thermal Enthalpy correction       ...      0.00094421 Eh       0.59 kcal/mol
-----------------------------------------------------------------------
Total Enthalpy                    ...   -888.00699389 Eh


Note: Only C1 symmetry has been detected, increase convergence thresholds 
      if your molecule has a higher symmetry. Symmetry factor of 1.0 is   
      used for the rotational entropy correction. 
 

Note: Rotational entropy computed according to Herzberg 
Infrared and Raman Spectra, Chapter V,1, Van Nostrand Reinhold, 1945 
Point Group:  C1, Symmetry Number:   1  
Rotational constants in cm-1:     0.013821     0.008764     0.007407 

Vibrational entropy computed according to the QRRHO of S. Grimme
Chem.Eur.J. 2012 18 9955


-------
ENTROPY
-------

The entropy contributions are T*S = T*(S(el)+S(vib)+S(rot)+S(trans))
     S(el)   - electronic entropy
     S(vib)  - vibrational entropy
     S(rot)  - rotational entropy
     S(trans)- translational entropy
The entropies will be listed as multiplied by the temperature to get
units of energy

Electronic entropy                ...      0.00000000 Eh      0.00 kcal/mol
Vibrational entropy               ...      0.02867610 Eh     17.99 kcal/mol
Rotational entropy                ...      0.01608421 Eh     10.09 kcal/mol
Translational entropy             ...      0.02040553 Eh     12.80 kcal/mol
-----------------------------------------------------------------------
Final entropy term                ...      0.06516584 Eh     40.89 kcal/mol

In case the symmetry of your molecule has not been determined correctly
or in case you have a reason to use a different symmetry number we print 
out the resulting rotational entropy values for sn=1,12 :
 --------------------------------------------------------
|  sn= 1 | S(rot)=       0.01608421 Eh     10.09 kcal/mol|
|  sn= 2 | S(rot)=       0.01542975 Eh      9.68 kcal/mol|
|  sn= 3 | S(rot)=       0.01504692 Eh      9.44 kcal/mol|
|  sn= 4 | S(rot)=       0.01477529 Eh      9.27 kcal/mol|
|  sn= 5 | S(rot)=       0.01456461 Eh      9.14 kcal/mol|
|  sn= 6 | S(rot)=       0.01439246 Eh      9.03 kcal/mol|
|  sn= 7 | S(rot)=       0.01424691 Eh      8.94 kcal/mol|
|  sn= 8 | S(rot)=       0.01412084 Eh      8.86 kcal/mol|
|  sn= 9 | S(rot)=       0.01400963 Eh      8.79 kcal/mol|
|  sn=10 | S(rot)=       0.01391015 Eh      8.73 kcal/mol|
|  sn=11 | S(rot)=       0.01382016 Eh      8.67 kcal/mol|
|  sn=12 | S(rot)=       0.01373800 Eh      8.62 kcal/mol|
 --------------------------------------------------------


-------------------
GIBBS FREE ENERGY
-------------------

The Gibbs free energy is G = H - T*S

Total enthalpy                    ...   -888.00699389 Eh 
Total entropy correction          ...     -0.06516584 Eh    -40.89 kcal/mol
-----------------------------------------------------------------------
Final Gibbs free energy         ...   -888.07215973 Eh

For completeness - the Gibbs free energy minus the electronic energy
G-E(el)                           ...      0.39742700 Eh    249.39 kcal/mol


Timings for individual modules:

Sum of individual times         ...    29753.612 sec (= 495.894 min)
GTO integral calculation        ...       48.328 sec (=   0.805 min)   0.2 %
SCF iterations                  ...    13463.120 sec (= 224.385 min)  45.2 %
SCF Gradient evaluation         ...     3901.741 sec (=  65.029 min)  13.1 %
Geometry relaxation             ...        4.364 sec (=   0.073 min)   0.0 %
Analytical frequency calculation...    10134.211 sec (= 168.904 min)  34.1 %
CHELPG charge generation        ...     2201.848 sec (=  36.697 min)   7.4 %
                             ****ORCA TERMINATED NORMALLY****
TOTAL RUN TIME: 0 days 8 hours 16 minutes 16 seconds 125 msec
