
Lmod is automatically replacing "intel/2020.1.217" with "gcc/10.3.0".


The following have been reloaded with a version change:
  1) gcccore/.9.3.0 => gcccore/.10.3.0        3) openmpi/4.0.3 => openmpi/4.1.1
  2) libfabric/1.10.1 => libfabric/1.12.1     4) ucx/1.8.0 => ucx/1.9.0

To execute ORCA, run: 
   ${EBROOTORCA}/orca orca.inp > orca.out
cp: cannot stat '/project/6006388/cieritan/Fentanyl_analogs/Fentanyl/O-Prot/CCSDT/*.hess': No such file or directory
cp: cannot stat '/project/6006388/cieritan/Fentanyl_analogs/Fentanyl/O-Prot/CCSDT/*.gbw': No such file or directory

                                 *****************
                                 * O   R   C   A *
                                 *****************

                                            #,                                       
                                            ###                                      
                                            ####                                     
                                            #####                                    
                                            ######                                   
                                           ########,                                 
                                     ,,################,,,,,                         
                               ,,#################################,,                 
                          ,,##########################################,,             
                       ,#########################################, ''#####,          
                    ,#############################################,,   '####,        
                  ,##################################################,,,,####,       
                ,###########''''           ''''###############################       
              ,#####''   ,,,,##########,,,,          '''####'''          '####       
            ,##' ,,,,###########################,,,                        '##       
           ' ,,###''''                  '''############,,,                           
         ,,##''                                '''############,,,,        ,,,,,,###''
      ,#''                                            '''#######################'''  
     '                                                          ''''####''''         
             ,#######,   #######,   ,#######,      ##                                
            ,#'     '#,  ##    ##  ,#'     '#,    #''#        ######   ,####,        
            ##       ##  ##   ,#'  ##            #'  '#       #        #'  '#        
            ##       ##  #######   ##           ,######,      #####,   #    #        
            '#,     ,#'  ##    ##  '#,     ,#' ,#      #,         ##   #,  ,#        
             '#######'   ##     ##  '#######'  #'      '#     #####' # '####'        



                  #######################################################
                  #                        -***-                        #
                  #          Department of theory and spectroscopy      #
                  #    Directorship and core code : Frank Neese         #
                  #        Max Planck Institute fuer Kohlenforschung    #
                  #                Kaiser Wilhelm Platz 1               #
                  #                 D-45470 Muelheim/Ruhr               #
                  #                      Germany                        #
                  #                                                     #
                  #                  All rights reserved                #
                  #                        -***-                        #
                  #######################################################


                         Program Version 5.0.4 -  RELEASE  -


 With contributions from (in alphabetic order):
   Daniel Aravena         : Magnetic Suceptibility
   Michael Atanasov       : Ab Initio Ligand Field Theory (pilot matlab implementation)
   Alexander A. Auer      : GIAO ZORA, VPT2 properties, NMR spectrum
   Ute Becker             : Parallelization
   Giovanni Bistoni       : ED, misc. LED, open-shell LED, HFLD
   Martin Brehm           : Molecular dynamics
   Dmytro Bykov           : SCF Hessian
   Vijay G. Chilkuri      : MRCI spin determinant printing, contributions to CSF-ICE
   Dipayan Datta          : RHF DLPNO-CCSD density
   Achintya Kumar Dutta   : EOM-CC, STEOM-CC
   Dmitry Ganyushin       : Spin-Orbit,Spin-Spin,Magnetic field MRCI
   Miquel Garcia          : C-PCM and meta-GGA Hessian, CC/C-PCM, Gaussian charge scheme
   Yang Guo               : DLPNO-NEVPT2, F12-NEVPT2, CIM, IAO-localization
   Andreas Hansen         : Spin unrestricted coupled pair/coupled cluster methods
   Benjamin Helmich-Paris : MC-RPA, TRAH-SCF, COSX integrals
   Lee Huntington         : MR-EOM, pCC
   Robert Izsak           : Overlap fitted RIJCOSX, COSX-SCS-MP3, EOM
   Marcus Kettner         : VPT2
   Christian Kollmar      : KDIIS, OOCD, Brueckner-CCSD(T), CCSD density, CASPT2, CASPT2-K
   Simone Kossmann        : Meta GGA functionals, TD-DFT gradient, OOMP2, MP2 Hessian
   Martin Krupicka        : Initial AUTO-CI
   Lucas Lang             : DCDCAS
   Marvin Lechner         : AUTO-CI (C++ implementation), FIC-MRCC
   Dagmar Lenk            : GEPOL surface, SMD
   Dimitrios Liakos       : Extrapolation schemes; Compound Job, initial MDCI parallelization
   Dimitrios Manganas     : Further ROCIS development; embedding schemes
   Dimitrios Pantazis     : SARC Basis sets
   Anastasios Papadopoulos: AUTO-CI, single reference methods and gradients
   Taras Petrenko         : DFT Hessian,TD-DFT gradient, ASA, ECA, R-Raman, ABS, FL, XAS/XES, NRVS
   Peter Pinski           : DLPNO-MP2, DLPNO-MP2 Gradient
   Christoph Reimann      : Effective Core Potentials
   Marius Retegan         : Local ZFS, SOC
   Christoph Riplinger    : Optimizer, TS searches, QM/MM, DLPNO-CCSD(T), (RO)-DLPNO pert. Triples
   Tobias Risthaus        : Range-separated hybrids, TD-DFT gradient, RPA, STAB
   Michael Roemelt        : Original ROCIS implementation
   Masaaki Saitow         : Open-shell DLPNO-CCSD energy and density
   Barbara Sandhoefer     : DKH picture change effects
   Avijit Sen             : IP-ROCIS
   Kantharuban Sivalingam : CASSCF convergence, NEVPT2, FIC-MRCI
   Bernardo de Souza      : ESD, SOC TD-DFT
   Georgi Stoychev        : AutoAux, RI-MP2 NMR, DLPNO-MP2 response
   Willem Van den Heuvel  : Paramagnetic NMR
   Boris Wezisla          : Elementary symmetry handling
   Frank Wennmohs         : Technical directorship


 We gratefully acknowledge several colleagues who have allowed us to
 interface, adapt or use parts of their codes:
   Stefan Grimme, W. Hujo, H. Kruse, P. Pracht,  : VdW corrections, initial TS optimization,
                  C. Bannwarth, S. Ehlert          DFT functionals, gCP, sTDA/sTD-DF
   Ed Valeev, F. Pavosevic, A. Kumar             : LibInt (2-el integral package), F12 methods
   Garnet Chan, S. Sharma, J. Yang, R. Olivares  : DMRG
   Ulf Ekstrom                                   : XCFun DFT Library
   Mihaly Kallay                                 : mrcc  (arbitrary order and MRCC methods)
   Jiri Pittner, Ondrej Demel                    : Mk-CCSD
   Frank Weinhold                                : gennbo (NPA and NBO analysis)
   Christopher J. Cramer and Donald G. Truhlar   : smd solvation model
   Lars Goerigk                                  : TD-DFT with DH, B97 family of functionals
   V. Asgeirsson, H. Jonsson                     : NEB implementation
   FAccTs GmbH                                   : IRC, NEB, NEB-TS, DLPNO-Multilevel, CI-OPT
                                                   MM, QMMM, 2- and 3-layer-ONIOM, Crystal-QMMM,
                                                   LR-CPCM, SF, NACMEs, symmetry and pop. for TD-DFT,
                                                   nearIR, NL-DFT gradient (VV10), updates on ESD,
                                                   ML-optimized integration grids
   S Lehtola, MJT Oliveira, MAL Marques          : LibXC Library
   Liviu Ungur et al                             : ANISO software


 Your calculation uses the libint2 library for the computation of 2-el integrals
 For citations please refer to: http://libint.valeyev.net

 Your ORCA version has been built with support for libXC version: 5.1.0
 For citations please refer to: https://tddft.org/programs/libxc/

 This ORCA versions uses:
   CBLAS   interface :  Fast vector & matrix operations
   LAPACKE interface :  Fast linear algebra routines
   SCALAPACK package :  Parallel linear algebra routines
   Shared memory     :  Shared parallel matrices
   BLAS/LAPACK       :  OpenBLAS 0.3.15  USE64BITINT DYNAMIC_ARCH NO_AFFINITY Haswell SINGLE_THREADED
        Core in use  :  Haswell
   Copyright (c) 2011-2014, The OpenBLAS Project


================================================================================

----- Orbital basis set information -----
Your calculation utilizes the basis: def2-TZVP
   F. Weigend and R. Ahlrichs, Phys. Chem. Chem. Phys. 7, 3297 (2005).

----- AuxC basis set information -----
Your calculation utilizes the auxiliary basis: def2-TZVP/C
  H-La, Hf-Rn : A. Hellweg, C. Hattig, S. Hofener and W. Klopper, Theor. Chem. Acc. 117, 587 (2007).
        Ce-Lu : J. Chmela and M. E. Harding, Mol. Phys. (2018).

================================================================================
                                        WARNINGS
                       Please study these warnings very carefully!
================================================================================


WARNING: Post HF methods need fully converged wavefunctions
  ===> : Setting SCFConvForced true
         You can overwrite this default with %scf ConvForced false 


WARNING: MDCI localization with Augmented Hessian Foster-Boys
  ===> : Switching off randomization!

INFO   : the flag for use of the SHARK integral package has been found!

================================================================================
                                       INPUT FILE
================================================================================
NAME = Fentanyl_OProt_21.inp
|  1> ! DLPNO-CCSD(T) def2-TZVP def2-TZVP/C VeryTightSCF
|  2> %maxcore 3400
|  3> 
|  4> %pal nprocs 8 
|  5> end
|  6> 
|  7> *xyz 1 1
|  8> O             2.878535         1.957989         1.204735
|  9> N            -1.950251         2.466310        -0.649147
| 10> N             1.840563         0.494638        -0.109338
| 11> C             0.727530         1.485452        -0.303643
| 12> C             0.004297         1.278296        -1.626458
| 13> C            -0.257867         1.430319         0.860063
| 14> C            -1.044451         2.395337        -1.764346
| 15> C            -1.318392         2.522809         0.644211
| 16> C            -3.316968         2.022116        -0.809654
| 17> C            -3.557656         0.515264        -0.993606
| 18> C             1.759612        -0.810937        -0.732276
| 19> C             2.856853         0.770019         0.647167
| 20> C            -3.183758        -0.348683         0.187814
| 21> C             3.973640        -0.204431         0.898869
| 22> C             1.099267        -1.835074        -0.074172
| 23> C             2.340109        -1.000121        -1.978309
| 24> C             5.079589         0.328398         1.804814
| 25> C            -2.457363        -1.522853         0.007579
| 26> C            -3.580704        -0.012903         1.483049
| 27> C             1.026767        -3.083050        -0.681017
| 28> C             2.261267        -2.249843        -2.575803
| 29> C             1.605791        -3.290279        -1.926158
| 30> C            -2.132540        -2.337353         1.087406
| 31> C            -3.241383        -0.810656         2.566189
| 32> C            -2.512240        -1.979402         2.373002
| 33> H             1.211837         2.464592        -0.320730
| 34> H            -0.485594         0.301764        -1.637150
| 35> H             0.702688         1.322168        -2.466521
| 36> H             0.258538         1.603684         1.808297
| 37> H            -0.734426         0.447931         0.895135
| 38> H            -0.509662         3.352139        -1.872614
| 39> H            -1.614300         2.248318        -2.683425
| 40> H            -2.077760         2.450075         1.422427
| 41> H            -0.823242         3.499337         0.767529
| 42> H            -3.885841         2.385298         0.049741
| 43> H            -3.738843         2.534083        -1.681415
| 44> H            -3.019247         0.166837        -1.880658
| 45> H            -4.622685         0.376537        -1.212897
| 46> H             4.371924        -0.503438        -0.073647
| 47> H             3.522570        -1.107402         1.318658
| 48> H             0.637876        -1.658668         0.890192
| 49> H             2.843779        -0.178007        -2.474865
| 50> H             5.842602        -0.439290         1.929994
| 51> H             4.711754         0.571656         2.806334
| 52> H             5.580221         1.201710         1.375560
| 53> H            -2.152861        -1.812506        -0.994143
| 54> H            -4.172651         0.880358         1.651690
| 55> H             0.515600        -3.895213        -0.178179
| 56> H             2.709518        -2.410238        -3.549161
| 57> H             1.545630        -4.265888        -2.394231
| 58> H            -1.592448        -3.263274         0.921387
| 59> H            -3.562089        -0.529809         3.563404
| 60> H            -2.263630        -2.614375         3.216012
| 61> H             3.680222         2.073800         1.734297
| 62> *
| 63> 
| 64> 
| 65>                          ****END OF INPUT****
================================================================================

                       ****************************
                       * Single Point Calculation *
                       ****************************

---------------------------------
CARTESIAN COORDINATES (ANGSTROEM)
---------------------------------
  O      2.878535    1.957989    1.204735
  N     -1.950251    2.466310   -0.649147
  N      1.840563    0.494638   -0.109338
  C      0.727530    1.485452   -0.303643
  C      0.004297    1.278296   -1.626458
  C     -0.257867    1.430319    0.860063
  C     -1.044451    2.395337   -1.764346
  C     -1.318392    2.522809    0.644211
  C     -3.316968    2.022116   -0.809654
  C     -3.557656    0.515264   -0.993606
  C      1.759612   -0.810937   -0.732276
  C      2.856853    0.770019    0.647167
  C     -3.183758   -0.348683    0.187814
  C      3.973640   -0.204431    0.898869
  C      1.099267   -1.835074   -0.074172
  C      2.340109   -1.000121   -1.978309
  C      5.079589    0.328398    1.804814
  C     -2.457363   -1.522853    0.007579
  C     -3.580704   -0.012903    1.483049
  C      1.026767   -3.083050   -0.681017
  C      2.261267   -2.249843   -2.575803
  C      1.605791   -3.290279   -1.926158
  C     -2.132540   -2.337353    1.087406
  C     -3.241383   -0.810656    2.566189
  C     -2.512240   -1.979402    2.373002
  H      1.211837    2.464592   -0.320730
  H     -0.485594    0.301764   -1.637150
  H      0.702688    1.322168   -2.466521
  H      0.258538    1.603684    1.808297
  H     -0.734426    0.447931    0.895135
  H     -0.509662    3.352139   -1.872614
  H     -1.614300    2.248318   -2.683425
  H     -2.077760    2.450075    1.422427
  H     -0.823242    3.499337    0.767529
  H     -3.885841    2.385298    0.049741
  H     -3.738843    2.534083   -1.681415
  H     -3.019247    0.166837   -1.880658
  H     -4.622685    0.376537   -1.212897
  H      4.371924   -0.503438   -0.073647
  H      3.522570   -1.107402    1.318658
  H      0.637876   -1.658668    0.890192
  H      2.843779   -0.178007   -2.474865
  H      5.842602   -0.439290    1.929994
  H      4.711754    0.571656    2.806334
  H      5.580221    1.201710    1.375560
  H     -2.152861   -1.812506   -0.994143
  H     -4.172651    0.880358    1.651690
  H      0.515600   -3.895213   -0.178179
  H      2.709518   -2.410238   -3.549161
  H      1.545630   -4.265888   -2.394231
  H     -1.592448   -3.263274    0.921387
  H     -3.562089   -0.529809    3.563404
  H     -2.263630   -2.614375    3.216012
  H      3.680222    2.073800    1.734297

----------------------------
CARTESIAN COORDINATES (A.U.)
----------------------------
  NO LB      ZA    FRAG     MASS         X           Y           Z
   0 O     8.0000    0    15.999    5.439643    3.700063    2.276619
   1 N     7.0000    0    14.007   -3.685440    4.660650   -1.226710
   2 N     7.0000    0    14.007    3.478160    0.934730   -0.206619
   3 C     6.0000    0    12.011    1.374832    2.807097   -0.573802
   4 C     6.0000    0    12.011    0.008120    2.415629   -3.073560
   5 C     6.0000    0    12.011   -0.487298    2.702911    1.625284
   6 C     6.0000    0    12.011   -1.973726    4.526531   -3.334131
   7 C     6.0000    0    12.011   -2.491400    4.767418    1.217382
   8 C     6.0000    0    12.011   -6.268161    3.821245   -1.530024
   9 C     6.0000    0    12.011   -6.722996    0.973708   -1.877643
  10 C     6.0000    0    12.011    3.325185   -1.532449   -1.383801
  11 C     6.0000    0    12.011    5.398670    1.455125    1.222968
  12 C     6.0000    0    12.011   -6.016431   -0.658915    0.354917
  13 C     6.0000    0    12.011    7.509091   -0.386319    1.698616
  14 C     6.0000    0    12.011    2.077314   -3.467787   -0.140165
  15 C     6.0000    0    12.011    4.422165   -1.889955   -3.738462
  16 C     6.0000    0    12.011    9.599032    0.620582    3.410604
  17 C     6.0000    0    12.011   -4.643743   -2.877775    0.014322
  18 C     6.0000    0    12.011   -6.766550   -0.024383    2.802556
  19 C     6.0000    0    12.011    1.940308   -5.826120   -1.286936
  20 C     6.0000    0    12.011    4.273175   -4.251587   -4.867562
  21 C     6.0000    0    12.011    3.034505   -6.217726   -3.639911
  22 C     6.0000    0    12.011   -4.029917   -4.416957    2.054900
  23 C     6.0000    0    12.011   -6.125326   -1.531918    4.849394
  24 C     6.0000    0    12.011   -4.747446   -3.740528    4.484324
  25 H     1.0000    0     1.008    2.290040    4.657404   -0.606092
  26 H     1.0000    0     1.008   -0.917640    0.570251   -3.093765
  27 H     1.0000    0     1.008    1.327888    2.498535   -4.661049
  28 H     1.0000    0     1.008    0.488566    3.030524    3.417186
  29 H     1.0000    0     1.008   -1.387864    0.846467    1.691560
  30 H     1.0000    0     1.008   -0.963122    6.334625   -3.538728
  31 H     1.0000    0     1.008   -3.050585    4.248705   -5.070938
  32 H     1.0000    0     1.008   -3.926397    4.629971    2.687997
  33 H     1.0000    0     1.008   -1.555702    6.612789    1.450420
  34 H     1.0000    0     1.008   -7.343175    4.507560    0.093997
  35 H     1.0000    0     1.008   -7.065389    4.788723   -3.177414
  36 H     1.0000    0     1.008   -5.705550    0.315276   -3.553929
  37 H     1.0000    0     1.008   -8.735609    0.711552   -2.292043
  38 H     1.0000    0     1.008    8.261739   -0.951360   -0.139173
  39 H     1.0000    0     1.008    6.656693   -2.092687    2.491902
  40 H     1.0000    0     1.008    1.205411   -3.134428    1.682219
  41 H     1.0000    0     1.008    5.373963   -0.336384   -4.676817
  42 H     1.0000    0     1.008   11.040918   -0.830138    3.647160
  43 H     1.0000    0     1.008    8.903925    1.080273    5.303203
  44 H     1.0000    0     1.008   10.545089    2.270903    2.599432
  45 H     1.0000    0     1.008   -4.068318   -3.425140   -1.878658
  46 H     1.0000    0     1.008   -7.885168    1.663636    3.121242
  47 H     1.0000    0     1.008    0.974343   -7.360886   -0.336710
  48 H     1.0000    0     1.008    5.120247   -4.554690   -6.706942
  49 H     1.0000    0     1.008    2.920817   -8.061360   -4.524441
  50 H     1.0000    0     1.008   -3.009291   -6.166694    1.741169
  51 H     1.0000    0     1.008   -6.731373   -1.001194    6.733858
  52 H     1.0000    0     1.008   -4.277641   -4.940453    6.077382
  53 H     1.0000    0     1.008    6.954612    3.918914    3.277346

--------------------------------
INTERNAL COORDINATES (ANGSTROEM)
--------------------------------
 O      0   0   0     0.000000000000     0.00000000     0.00000000
 N      1   0   0     5.197349607517     0.00000000     0.00000000
 N      1   2   0     2.223863725887    54.54535282     0.00000000
 C      3   1   2     1.502767205761    89.32654121     8.50761432
 C      4   3   1     1.521781556220   112.00208320   153.46394481
 C      4   3   1     1.525863214621   110.84738653   277.45656617
 C      2   1   3     1.438464325706    71.73976577   299.28731445
 C      2   1   3     1.440559908177    43.62015966   127.37539635
 C      2   1   3     1.446024261475   152.58312310    58.86101045
 C      9   2   1     1.537000976432   117.54527517   321.20754915
 C      3   1   2     1.448837774518   150.82023310   191.40644069
 C      3   1   2     1.296526079293    31.74455670   189.78374581
 C     10   9   2     1.510614891232   115.36214985    64.64021564
 C     12   3   1     1.503369516344   122.84104721   179.80907225
 C     11   3   1     1.384923459477   119.25498664    90.22633301
 C     11   3   1     1.387575435771   119.05071089   269.85040438
 C     14  12   3     1.525701896462   114.30094597   179.24498585
 C     13  10   9     1.392411411958   120.67498915   225.78205059
 C     13  10   9     1.395689091646   121.18479917    47.30606496
 C     15  11   3     1.389590299549   118.78243000   179.95782529
 C     16  11   3     1.387450978696   119.06144005   180.07998444
 C     20  15  11     1.388736389996   120.25257560   359.84928436
 C     18  13  10     1.391023573222   121.00425172   181.30454796
 C     19  13  10     1.387350298104   121.10659162   179.71452835
 C     23  18  13     1.387464624276   120.28619902   358.99571926
 H      4   3   1     1.092501888062   105.34326224    35.57623397
 H      5   4   3     1.092575973454   110.07627597    63.79543068
 H      5   4   3     1.093334617230   111.02957396   303.82543409
 H      6   4   3     1.093561733971   110.52487545    56.57358768
 H      6   4   3     1.092439796149   109.79738519   296.65683226
 H      7   2   1     1.101449636411   109.82114531   284.57603280
 H      7   2   1     1.091351766115   109.31377941   167.80367417
 H      8   2   1     1.089747740000   109.44438348   195.40679613
 H      8   2   1     1.101811139174   109.41216008    78.46030626
 H      9   2   1     1.092738496292   107.61687503    85.68732026
 H      9   2   1     1.095470659504   107.98433365   199.32573461
 H     10   9   2     1.094598956839   109.39229331   300.99741752
 H     10   9   2     1.096184516425   107.46718482   186.35531970
 H     14  12   3     1.092621938715   107.40631642    55.51047665
 H     14  12   3     1.093180486590   107.04788003   302.68739553
 H     15  11   3     1.083512185540   120.36991329     0.74543816
 H     16  11   3     1.084491935900   120.13929551   359.85607794
 H     17  14  12     1.089588792120   109.25509505   180.09371323
 H     17  14  12     1.094312273617   112.17366330    62.02750660
 H     17  14  12     1.094333242337   112.17279718   298.16755008
 H     18  13  10     1.086309023113   119.36958250     0.42995154
 H     19  13  10     1.084783965502   119.83972858     0.30593554
 H     20  15  11     1.083395816266   119.68131603   179.86467789
 H     21  16  11     1.083550327022   119.78008484   179.93064153
 H     22  20  15     1.083754861641   119.89595198   180.01120898
 H     23  18  13     1.084707967642   119.82029928   178.11764028
 H     24  19  13     1.084511471618   119.77845344   180.06142306
 H     25  23  18     1.084280177320   120.43561662   179.76501368
 H      1   2   3     0.967755209510   162.38978986   196.84933547

---------------------------
INTERNAL COORDINATES (A.U.)
---------------------------
 O      0   0   0     0.000000000000     0.00000000     0.00000000
 N      1   0   0     9.821567380451     0.00000000     0.00000000
 N      1   2   0     4.202493401087    54.54535282     0.00000000
 C      3   1   2     2.839818461926    89.32654121     8.50761432
 C      4   3   1     2.875750376907   112.00208320   153.46394481
 C      4   3   1     2.883463593459   110.84738653   277.45656617
 C      2   1   3     2.718303629001    71.73976577   299.28731445
 C      2   1   3     2.722263705961    43.62015966   127.37539635
 C      2   1   3     2.732589837193   152.58312310    58.86101045
 C      9   2   1     2.904510913025   117.54527517   321.20754915
 C      3   1   2     2.737906606319   150.82023310   191.40644069
 C      3   1   2     2.450079215350    31.74455670   189.78374581
 C     10   9   2     2.854648438252   115.36214985    64.64021564
 C     12   3   1     2.840956663976   122.84104721   179.80907225
 C     11   3   1     2.617126054854   119.25498664    90.22633301
 C     11   3   1     2.622137563763   119.05071089   269.85040438
 C     14  12   3     2.883158746317   114.30094597   179.24498585
 C     13  10   9     2.631276234347   120.67498915   225.78205059
 C     13  10   9     2.637470151313   121.18479917    47.30606496
 C     15  11   3     2.625945104501   118.78243000   179.95782529
 C     16  11   3     2.621902373976   119.06144005   180.07998444
 C     20  15  11     2.624331449302   120.25257560   359.84928436
 C     18  13  10     2.628653599217   121.00425172   181.30454796
 C     19  13  10     2.621712115231   121.10659162   179.71452835
 C     23  18  13     2.621928160385   120.28619902   358.99571926
 H      4   3   1     2.064529369228   105.34326224    35.57623397
 H      5   4   3     2.064669370331   110.07627597    63.79543068
 H      5   4   3     2.066102999301   111.02957396   303.82543409
 H      6   4   3     2.066532187742   110.52487545    56.57358768
 H      6   4   3     2.064412032517   109.79738519   296.65683226
 H      7   2   1     2.081438163123   109.82114531   284.57603280
 H      7   2   1     2.062355953729   109.31377941   167.80367417
 H      8   2   1     2.059324783660   109.44438348   195.40679613
 H      8   2   1     2.082121304343   109.41216008    78.46030626
 H      9   2   1     2.064976493984   107.61687503    85.68732026
 H      9   2   1     2.070139534209   107.98433365   199.32573461
 H     10   9   2     2.068492254902   109.39229331   300.99741752
 H     10   9   2     2.071488528289   107.46718482   186.35531970
 H     14  12   3     2.064756232085   107.40631642    55.51047665
 H     14  12   3     2.065811734603   107.04788003   302.68739553
 H     15  11   3     2.047541293436   120.36991329     0.74543816
 H     16  11   3     2.049392753297   120.13929551   359.85607794
 H     17  14  12     2.059024415696   109.25509505   180.09371323
 H     17  14  12     2.067950502125   112.17366330    62.02750660
 H     17  14  12     2.067990127263   112.17279718   298.16755008
 H     18  13  10     2.052826550491   119.36958250     0.42995154
 H     19  13  10     2.049944609269   119.83972858     0.30593554
 H     20  15  11     2.047321387378   119.68131603   179.86467789
 H     21  16  11     2.047613370393   119.78008484   179.93064153
 H     22  20  15     2.047999884808   119.89595198   180.01120898
 H     23  18  13     2.049800994126   119.82029928   178.11764028
 H     24  19  13     2.049429670453   119.77845344   180.06142306
 H     25  23  18     2.048992587574   120.43561662   179.76501368
 H      1   2   3     1.828792310650   162.38978986   196.84933547

---------------------
BASIS SET INFORMATION
---------------------
There are 4 groups of distinct atoms

 Group   1 Type O   : 11s6p2d1f contracted to 5s3p2d1f pattern {62111/411/11/1}
 Group   2 Type N   : 11s6p2d1f contracted to 5s3p2d1f pattern {62111/411/11/1}
 Group   3 Type C   : 11s6p2d1f contracted to 5s3p2d1f pattern {62111/411/11/1}
 Group   4 Type H   : 5s1p contracted to 3s1p pattern {311/1}

Atom   0O    basis set group =>   1
Atom   1N    basis set group =>   2
Atom   2N    basis set group =>   2
Atom   3C    basis set group =>   3
Atom   4C    basis set group =>   3
Atom   5C    basis set group =>   3
Atom   6C    basis set group =>   3
Atom   7C    basis set group =>   3
Atom   8C    basis set group =>   3
Atom   9C    basis set group =>   3
Atom  10C    basis set group =>   3
Atom  11C    basis set group =>   3
Atom  12C    basis set group =>   3
Atom  13C    basis set group =>   3
Atom  14C    basis set group =>   3
Atom  15C    basis set group =>   3
Atom  16C    basis set group =>   3
Atom  17C    basis set group =>   3
Atom  18C    basis set group =>   3
Atom  19C    basis set group =>   3
Atom  20C    basis set group =>   3
Atom  21C    basis set group =>   3
Atom  22C    basis set group =>   3
Atom  23C    basis set group =>   3
Atom  24C    basis set group =>   3
Atom  25H    basis set group =>   4
Atom  26H    basis set group =>   4
Atom  27H    basis set group =>   4
Atom  28H    basis set group =>   4
Atom  29H    basis set group =>   4
Atom  30H    basis set group =>   4
Atom  31H    basis set group =>   4
Atom  32H    basis set group =>   4
Atom  33H    basis set group =>   4
Atom  34H    basis set group =>   4
Atom  35H    basis set group =>   4
Atom  36H    basis set group =>   4
Atom  37H    basis set group =>   4
Atom  38H    basis set group =>   4
Atom  39H    basis set group =>   4
Atom  40H    basis set group =>   4
Atom  41H    basis set group =>   4
Atom  42H    basis set group =>   4
Atom  43H    basis set group =>   4
Atom  44H    basis set group =>   4
Atom  45H    basis set group =>   4
Atom  46H    basis set group =>   4
Atom  47H    basis set group =>   4
Atom  48H    basis set group =>   4
Atom  49H    basis set group =>   4
Atom  50H    basis set group =>   4
Atom  51H    basis set group =>   4
Atom  52H    basis set group =>   4
Atom  53H    basis set group =>   4
---------------------------------
AUXILIARY/C BASIS SET INFORMATION
---------------------------------
There are 4 groups of distinct atoms

 Group   1 Type O   : 8s6p5d3f1g contracted to 8s6p4d3f1g pattern {11111111/111111/2111/111/1}
 Group   2 Type N   : 8s6p5d3f1g contracted to 8s6p4d3f1g pattern {11111111/111111/2111/111/1}
 Group   3 Type C   : 8s6p5d3f1g contracted to 8s6p4d3f1g pattern {11111111/111111/2111/111/1}
 Group   4 Type H   : 4s3p2d contracted to 4s2p1d pattern {1111/21/2}

Atom   0O    basis set group =>   1
Atom   1N    basis set group =>   2
Atom   2N    basis set group =>   2
Atom   3C    basis set group =>   3
Atom   4C    basis set group =>   3
Atom   5C    basis set group =>   3
Atom   6C    basis set group =>   3
Atom   7C    basis set group =>   3
Atom   8C    basis set group =>   3
Atom   9C    basis set group =>   3
Atom  10C    basis set group =>   3
Atom  11C    basis set group =>   3
Atom  12C    basis set group =>   3
Atom  13C    basis set group =>   3
Atom  14C    basis set group =>   3
Atom  15C    basis set group =>   3
Atom  16C    basis set group =>   3
Atom  17C    basis set group =>   3
Atom  18C    basis set group =>   3
Atom  19C    basis set group =>   3
Atom  20C    basis set group =>   3
Atom  21C    basis set group =>   3
Atom  22C    basis set group =>   3
Atom  23C    basis set group =>   3
Atom  24C    basis set group =>   3
Atom  25H    basis set group =>   4
Atom  26H    basis set group =>   4
Atom  27H    basis set group =>   4
Atom  28H    basis set group =>   4
Atom  29H    basis set group =>   4
Atom  30H    basis set group =>   4
Atom  31H    basis set group =>   4
Atom  32H    basis set group =>   4
Atom  33H    basis set group =>   4
Atom  34H    basis set group =>   4
Atom  35H    basis set group =>   4
Atom  36H    basis set group =>   4
Atom  37H    basis set group =>   4
Atom  38H    basis set group =>   4
Atom  39H    basis set group =>   4
Atom  40H    basis set group =>   4
Atom  41H    basis set group =>   4
Atom  42H    basis set group =>   4
Atom  43H    basis set group =>   4
Atom  44H    basis set group =>   4
Atom  45H    basis set group =>   4
Atom  46H    basis set group =>   4
Atom  47H    basis set group =>   4
Atom  48H    basis set group =>   4
Atom  49H    basis set group =>   4
Atom  50H    basis set group =>   4
Atom  51H    basis set group =>   4
Atom  52H    basis set group =>   4
Atom  53H    basis set group =>   4


           ************************************************************
           *        Program running with 8 parallel MPI-processes     *
           *              working on a common directory               *
           ************************************************************
------------------------------------------------------------------------------
                           ORCA GTO INTEGRAL CALCULATION
------------------------------------------------------------------------------
------------------------------------------------------------------------------
                   ___                                                        
                  /   \      - P O W E R E D   B Y -                         
                 /     \                                                     
                 |  |  |   _    _      __       _____    __    __             
                 |  |  |  | |  | |    /  \     |  _  \  |  |  /  |          
                  \  \/   | |  | |   /    \    | | | |  |  | /  /          
                 / \  \   | |__| |  /  /\  \   | |_| |  |  |/  /          
                |  |  |   |  __  | /  /__\  \  |    /   |      \           
                |  |  |   | |  | | |   __   |  |    \   |  |\   \          
                \     /   | |  | | |  |  |  |  | |\  \  |  | \   \       
                 \___/    |_|  |_| |__|  |__|  |_| \__\ |__|  \__/        
                                                                              
                      - O R C A' S   B I G   F R I E N D -                    
                                      &                                       
                       - I N T E G R A L  F E E D E R -                       
                                                                              
 v1 FN, 2020, v2 2021                                                         
------------------------------------------------------------------------------


Reading SHARK input file Fentanyl_OProt_21.SHARKINP.tmp ... ok
----------------------
SHARK INTEGRAL PACKAGE
----------------------

Number of atoms                             ...     54
Number of basis functions                   ...    949
Number of shells                            ...    391
Maximum angular momentum                    ...      3
Integral batch strategy                     ... SHARK/LIBINT Hybrid
RI-J (if used) integral strategy            ... SPLIT-RIJ (Revised 2003 algorithm where possible)
Printlevel                                  ...      1
Contraction scheme used                     ... SEGMENTED contraction
Coulomb Range Separation                    ... NOT USED
Exchange Range Separation                   ... NOT USED
Finite Nucleus Model                        ... NOT USED
Auxiliary Coulomb fitting basis             ... NOT available
Auxiliary J/K fitting basis                 ... NOT available
Auxiliary Correlation fitting basis         ... AVAILABLE
   # of basis functions in Aux-C            ...   2335
   # of shells in Aux-C                     ...    753
   Maximum angular momentum in Aux-C        ...      4
Auxiliary 'external' fitting basis          ... NOT available
Integral threshold                          ...     1.000000e-12
Primitive cut-off                           ...     1.000000e-14
Primitive pair pre-selection threshold      ...     1.000000e-14

Calculating pre-screening integrals         ... done (  0.1 sec) Dimension = 391
Organizing shell pair data                  ... done (  0.7 sec)
Shell pair information
Total number of shell pairs                 ...     76636
Shell pairs after pre-screening             ...     58997
Total number of primitive shell pairs       ...    228112
Primitive shell pairs kept                  ...    117889
          la=0 lb=0:  17001 shell pairs
          la=1 lb=0:  17355 shell pairs
          la=1 lb=1:   4506 shell pairs
          la=2 lb=0:   8032 shell pairs
          la=2 lb=1:   4178 shell pairs
          la=2 lb=2:   1017 shell pairs
          la=3 lb=0:   3745 shell pairs
          la=3 lb=1:   2002 shell pairs
          la=3 lb=2:    938 shell pairs
          la=3 lb=3:    223 shell pairs

Calculating one electron integrals          ... done (  0.1 sec)
Calculating RI/C V-Matrix + Cholesky decomp.... done (  0.6 sec)
Calculating Nuclear repulsion               ... done (  0.0 sec) ENN=   2318.705686606110 Eh

SHARK setup successfully completed in   2.7 seconds

Maximum memory used throughout the entire GTOINT-calculation: 84.9 MB
[1704049255.012973] [gra1029:19061:0]          mpool.c:42   UCX  WARN  object 0xac05c80 was not returned to mpool ucp_requests
[1704049255.013002] [gra1029:19061:0]          mpool.c:42   UCX  WARN  object 0xac05e40 was not returned to mpool ucp_requests
[1704049255.013009] [gra1029:19061:0]          mpool.c:42   UCX  WARN  object 0xac06000 was not returned to mpool ucp_requests
[1704049255.013016] [gra1029:19061:0]          mpool.c:42   UCX  WARN  object 0xac061c0 was not returned to mpool ucp_requests
[1704049255.013024] [gra1029:19061:0]          mpool.c:42   UCX  WARN  object 0xac06380 was not returned to mpool ucp_requests
[1704049255.013030] [gra1029:19061:0]          mpool.c:42   UCX  WARN  object 0xac06540 was not returned to mpool ucp_requests
[1704049255.013036] [gra1029:19061:0]          mpool.c:42   UCX  WARN  object 0xac06700 was not returned to mpool ucp_requests
[1704049255.013042] [gra1029:19061:0]          mpool.c:42   UCX  WARN  object 0xac068c0 was not returned to mpool ucp_requests
[1704049255.013047] [gra1029:19061:0]          mpool.c:42   UCX  WARN  object 0xac06a80 was not returned to mpool ucp_requests
[1704049255.013054] [gra1029:19061:0]          mpool.c:42   UCX  WARN  object 0xac06c40 was not returned to mpool ucp_requests
[1704049255.013065] [gra1029:19061:0]          mpool.c:42   UCX  WARN  object 0xac06e00 was not returned to mpool ucp_requests
[1704049255.013079] [gra1029:19061:0]          mpool.c:42   UCX  WARN  object 0xac06fc0 was not returned to mpool ucp_requests
[1704049255.013088] [gra1029:19065:0]          mpool.c:42   UCX  WARN  object 0xbd7efc0 was not returned to mpool ucp_requests
[1704049255.013108] [gra1029:19065:0]          mpool.c:42   UCX  WARN  object 0xbd7f180 was not returned to mpool ucp_requests
[1704049255.013115] [gra1029:19065:0]          mpool.c:42   UCX  WARN  object 0xbd7f340 was not returned to mpool ucp_requests
[1704049255.013121] [gra1029:19065:0]          mpool.c:42   UCX  WARN  object 0xbd7f500 was not returned to mpool ucp_requests
[1704049255.013127] [gra1029:19065:0]          mpool.c:42   UCX  WARN  object 0xbd7f6c0 was not returned to mpool ucp_requests
[1704049255.013133] [gra1029:19065:0]          mpool.c:42   UCX  WARN  object 0xbd7f880 was not returned to mpool ucp_requests
[1704049255.013138] [gra1029:19065:0]          mpool.c:42   UCX  WARN  object 0xbd7fa40 was not returned to mpool ucp_requests
[1704049255.013144] [gra1029:19065:0]          mpool.c:42   UCX  WARN  object 0xbd7fc00 was not returned to mpool ucp_requests
[1704049255.013149] [gra1029:19065:0]          mpool.c:42   UCX  WARN  object 0xbd7fdc0 was not returned to mpool ucp_requests
[1704049255.013155] [gra1029:19065:0]          mpool.c:42   UCX  WARN  object 0xbd7ff80 was not returned to mpool ucp_requests
[1704049255.013160] [gra1029:19065:0]          mpool.c:42   UCX  WARN  object 0xbd80140 was not returned to mpool ucp_requests
[1704049255.013166] [gra1029:19065:0]          mpool.c:42   UCX  WARN  object 0xbd80300 was not returned to mpool ucp_requests
[1704049255.013172] [gra1029:19065:0]          mpool.c:42   UCX  WARN  object 0xbd804c0 was not returned to mpool ucp_requests
[1704049255.013177] [gra1029:19065:0]          mpool.c:42   UCX  WARN  object 0xbd80680 was not returned to mpool ucp_requests
[1704049255.013183] [gra1029:19065:0]          mpool.c:42   UCX  WARN  object 0xbd80840 was not returned to mpool ucp_requests
[1704049255.013199] [gra1029:19065:0]          mpool.c:42   UCX  WARN  object 0xbd80a00 was not returned to mpool ucp_requests
[1704049255.013086] [gra1029:19061:0]          mpool.c:42   UCX  WARN  object 0xac07180 was not returned to mpool ucp_requests
[1704049255.013092] [gra1029:19061:0]          mpool.c:42   UCX  WARN  object 0xac07340 was not returned to mpool ucp_requests
[1704049255.013098] [gra1029:19061:0]          mpool.c:42   UCX  WARN  object 0xac07500 was not returned to mpool ucp_requests
[1704049255.013103] [gra1029:19061:0]          mpool.c:42   UCX  WARN  object 0xac076c0 was not returned to mpool ucp_requests
[1704049255.013109] [gra1029:19061:0]          mpool.c:42   UCX  WARN  object 0xac07880 was not returned to mpool ucp_requests
[1704049255.013115] [gra1029:19061:0]          mpool.c:42   UCX  WARN  object 0xac07a40 was not returned to mpool ucp_requests
[1704049255.013206] [gra1029:19065:0]          mpool.c:42   UCX  WARN  object 0xbd80bc0 was not returned to mpool ucp_requests
[1704049255.013212] [gra1029:19065:0]          mpool.c:42   UCX  WARN  object 0xbd80d80 was not returned to mpool ucp_requests
[1704049255.013817] [gra1029:19062:0]          mpool.c:42   UCX  WARN  object 0xb129540 was not returned to mpool ucp_requests
[1704049255.013841] [gra1029:19062:0]          mpool.c:42   UCX  WARN  object 0xb129700 was not returned to mpool ucp_requests
[1704049255.013849] [gra1029:19062:0]          mpool.c:42   UCX  WARN  object 0xb1298c0 was not returned to mpool ucp_requests
[1704049255.013857] [gra1029:19062:0]          mpool.c:42   UCX  WARN  object 0xb129a80 was not returned to mpool ucp_requests
[1704049255.013864] [gra1029:19062:0]          mpool.c:42   UCX  WARN  object 0xb129c40 was not returned to mpool ucp_requests
[1704049255.013873] [gra1029:19062:0]          mpool.c:42   UCX  WARN  object 0xb129e00 was not returned to mpool ucp_requests
[1704049255.013879] [gra1029:19062:0]          mpool.c:42   UCX  WARN  object 0xb129fc0 was not returned to mpool ucp_requests
[1704049255.013885] [gra1029:19062:0]          mpool.c:42   UCX  WARN  object 0xb12a180 was not returned to mpool ucp_requests
[1704049255.013891] [gra1029:19062:0]          mpool.c:42   UCX  WARN  object 0xb12a340 was not returned to mpool ucp_requests
[1704049255.013896] [gra1029:19062:0]          mpool.c:42   UCX  WARN  object 0xb12a500 was not returned to mpool ucp_requests
[1704049255.013902] [gra1029:19062:0]          mpool.c:42   UCX  WARN  object 0xb12a6c0 was not returned to mpool ucp_requests
[1704049255.013916] [gra1029:19062:0]          mpool.c:42   UCX  WARN  object 0xb12a880 was not returned to mpool ucp_requests
[1704049255.013922] [gra1029:19062:0]          mpool.c:42   UCX  WARN  object 0xb12aa40 was not returned to mpool ucp_requests
[1704049255.013929] [gra1029:19062:0]          mpool.c:42   UCX  WARN  object 0xb12ac00 was not returned to mpool ucp_requests
[1704049255.013940] [gra1029:19062:0]          mpool.c:42   UCX  WARN  object 0xb12adc0 was not returned to mpool ucp_requests
[1704049255.013942] [gra1029:19066:0]          mpool.c:42   UCX  WARN  object 0xaecb6c0 was not returned to mpool ucp_requests
[1704049255.013962] [gra1029:19066:0]          mpool.c:42   UCX  WARN  object 0xaecb880 was not returned to mpool ucp_requests
[1704049255.013970] [gra1029:19066:0]          mpool.c:42   UCX  WARN  object 0xaecba40 was not returned to mpool ucp_requests
[1704049255.013976] [gra1029:19066:0]          mpool.c:42   UCX  WARN  object 0xaecbc00 was not returned to mpool ucp_requests
[1704049255.013991] [gra1029:19066:0]          mpool.c:42   UCX  WARN  object 0xaecbdc0 was not returned to mpool ucp_requests
[1704049255.013946] [gra1029:19062:0]          mpool.c:42   UCX  WARN  object 0xb12af80 was not returned to mpool ucp_requests
[1704049255.013953] [gra1029:19062:0]          mpool.c:42   UCX  WARN  object 0xb12b140 was not returned to mpool ucp_requests
[1704049255.013958] [gra1029:19062:0]          mpool.c:42   UCX  WARN  object 0xb12b300 was not returned to mpool ucp_requests
[1704049255.013997] [gra1029:19066:0]          mpool.c:42   UCX  WARN  object 0xaecbf80 was not returned to mpool ucp_requests
[1704049255.014004] [gra1029:19066:0]          mpool.c:42   UCX  WARN  object 0xaecc140 was not returned to mpool ucp_requests
[1704049255.014010] [gra1029:19066:0]          mpool.c:42   UCX  WARN  object 0xaecc300 was not returned to mpool ucp_requests
[1704049255.014015] [gra1029:19066:0]          mpool.c:42   UCX  WARN  object 0xaecc4c0 was not returned to mpool ucp_requests
[1704049255.014021] [gra1029:19066:0]          mpool.c:42   UCX  WARN  object 0xaecc680 was not returned to mpool ucp_requests
[1704049255.014027] [gra1029:19066:0]          mpool.c:42   UCX  WARN  object 0xaecc840 was not returned to mpool ucp_requests
[1704049255.014033] [gra1029:19066:0]          mpool.c:42   UCX  WARN  object 0xaecca00 was not returned to mpool ucp_requests
[1704049255.014047] [gra1029:19066:0]          mpool.c:42   UCX  WARN  object 0xaeccbc0 was not returned to mpool ucp_requests
[1704049255.014053] [gra1029:19066:0]          mpool.c:42   UCX  WARN  object 0xaeccd80 was not returned to mpool ucp_requests
[1704049255.014059] [gra1029:19066:0]          mpool.c:42   UCX  WARN  object 0xaeccf40 was not returned to mpool ucp_requests
[1704049255.014069] [gra1029:19066:0]          mpool.c:42   UCX  WARN  object 0xaecd100 was not returned to mpool ucp_requests
[1704049255.014075] [gra1029:19066:0]          mpool.c:42   UCX  WARN  object 0xaecd2c0 was not returned to mpool ucp_requests
[1704049255.014081] [gra1029:19066:0]          mpool.c:42   UCX  WARN  object 0xaecd480 was not returned to mpool ucp_requests
[1704049255.015468] [gra1029:19063:0]          mpool.c:42   UCX  WARN  object 0xc16eec0 was not returned to mpool ucp_requests
[1704049255.015491] [gra1029:19063:0]          mpool.c:42   UCX  WARN  object 0xc16f080 was not returned to mpool ucp_requests
[1704049255.015498] [gra1029:19063:0]          mpool.c:42   UCX  WARN  object 0xc16f240 was not returned to mpool ucp_requests
[1704049255.015505] [gra1029:19063:0]          mpool.c:42   UCX  WARN  object 0xc16f400 was not returned to mpool ucp_requests
[1704049255.015511] [gra1029:19063:0]          mpool.c:42   UCX  WARN  object 0xc16f5c0 was not returned to mpool ucp_requests
[1704049255.015517] [gra1029:19063:0]          mpool.c:42   UCX  WARN  object 0xc16f780 was not returned to mpool ucp_requests
[1704049255.015523] [gra1029:19063:0]          mpool.c:42   UCX  WARN  object 0xc16f940 was not returned to mpool ucp_requests
[1704049255.015529] [gra1029:19063:0]          mpool.c:42   UCX  WARN  object 0xc16fb00 was not returned to mpool ucp_requests
[1704049255.015535] [gra1029:19063:0]          mpool.c:42   UCX  WARN  object 0xc16fcc0 was not returned to mpool ucp_requests
[1704049255.015541] [gra1029:19063:0]          mpool.c:42   UCX  WARN  object 0xc16fe80 was not returned to mpool ucp_requests
[1704049255.015546] [gra1029:19063:0]          mpool.c:42   UCX  WARN  object 0xc170040 was not returned to mpool ucp_requests
[1704049255.015552] [gra1029:19063:0]          mpool.c:42   UCX  WARN  object 0xc170200 was not returned to mpool ucp_requests
[1704049255.015558] [gra1029:19063:0]          mpool.c:42   UCX  WARN  object 0xc1703c0 was not returned to mpool ucp_requests
[1704049255.015563] [gra1029:19063:0]          mpool.c:42   UCX  WARN  object 0xc170580 was not returned to mpool ucp_requests
[1704049255.015571] [gra1029:19063:0]          mpool.c:42   UCX  WARN  object 0xc170740 was not returned to mpool ucp_requests
[1704049255.015578] [gra1029:19063:0]          mpool.c:42   UCX  WARN  object 0xc170900 was not returned to mpool ucp_requests
[1704049255.015584] [gra1029:19063:0]          mpool.c:42   UCX  WARN  object 0xc170ac0 was not returned to mpool ucp_requests
[1704049255.015593] [gra1029:19063:0]          mpool.c:42   UCX  WARN  object 0xc170c80 was not returned to mpool ucp_requests
[1704049255.016966] [gra1029:19060:0]          mpool.c:42   UCX  WARN  object 0xb7268c0 was not returned to mpool ucp_requests
[1704049255.017077] [gra1029:19060:0]          mpool.c:42   UCX  WARN  object 0xb726a80 was not returned to mpool ucp_requests
[1704049255.017154] [gra1029:19060:0]          mpool.c:42   UCX  WARN  object 0xb726c40 was not returned to mpool ucp_requests
[1704049255.017230] [gra1029:19060:0]          mpool.c:42   UCX  WARN  object 0xb726e00 was not returned to mpool ucp_requests
[1704049255.017397] [gra1029:19064:0]          mpool.c:42   UCX  WARN  object 0xb958580 was not returned to mpool ucp_requests
[1704049255.017423] [gra1029:19064:0]          mpool.c:42   UCX  WARN  object 0xb958740 was not returned to mpool ucp_requests
[1704049255.017433] [gra1029:19064:0]          mpool.c:42   UCX  WARN  object 0xb958900 was not returned to mpool ucp_requests
[1704049255.017445] [gra1029:19064:0]          mpool.c:42   UCX  WARN  object 0xb958ac0 was not returned to mpool ucp_requests
[1704049255.017395] [gra1029:19060:0]          mpool.c:42   UCX  WARN  object 0xb726fc0 was not returned to mpool ucp_requests
[1704049255.017452] [gra1029:19064:0]          mpool.c:42   UCX  WARN  object 0xb958c80 was not returned to mpool ucp_requests
[1704049255.017459] [gra1029:19064:0]          mpool.c:42   UCX  WARN  object 0xb958e40 was not returned to mpool ucp_requests
[1704049255.017469] [gra1029:19064:0]          mpool.c:42   UCX  WARN  object 0xb959000 was not returned to mpool ucp_requests
[1704049255.017475] [gra1029:19064:0]          mpool.c:42   UCX  WARN  object 0xb9591c0 was not returned to mpool ucp_requests
[1704049255.017485] [gra1029:19064:0]          mpool.c:42   UCX  WARN  object 0xb959380 was not returned to mpool ucp_requests
[1704049255.017491] [gra1029:19064:0]          mpool.c:42   UCX  WARN  object 0xb959540 was not returned to mpool ucp_requests
[1704049255.017496] [gra1029:19064:0]          mpool.c:42   UCX  WARN  object 0xb959700 was not returned to mpool ucp_requests
[1704049255.017502] [gra1029:19064:0]          mpool.c:42   UCX  WARN  object 0xb9598c0 was not returned to mpool ucp_requests
[1704049255.017508] [gra1029:19064:0]          mpool.c:42   UCX  WARN  object 0xb959a80 was not returned to mpool ucp_requests
[1704049255.017513] [gra1029:19064:0]          mpool.c:42   UCX  WARN  object 0xb959c40 was not returned to mpool ucp_requests
[1704049255.017519] [gra1029:19064:0]          mpool.c:42   UCX  WARN  object 0xb959e00 was not returned to mpool ucp_requests
[1704049255.017525] [gra1029:19064:0]          mpool.c:42   UCX  WARN  object 0xb959fc0 was not returned to mpool ucp_requests
[1704049255.017530] [gra1029:19064:0]          mpool.c:42   UCX  WARN  object 0xb95a180 was not returned to mpool ucp_requests
[1704049255.017536] [gra1029:19064:0]          mpool.c:42   UCX  WARN  object 0xb95a340 was not returned to mpool ucp_requests
[1704049255.017466] [gra1029:19060:0]          mpool.c:42   UCX  WARN  object 0xb727180 was not returned to mpool ucp_requests
[1704049255.017668] [gra1029:19060:0]          mpool.c:42   UCX  WARN  object 0xb727340 was not returned to mpool ucp_requests
[1704049255.017743] [gra1029:19060:0]          mpool.c:42   UCX  WARN  object 0xb727500 was not returned to mpool ucp_requests
[1704049255.017819] [gra1029:19060:0]          mpool.c:42   UCX  WARN  object 0xb7276c0 was not returned to mpool ucp_requests
[1704049255.017894] [gra1029:19060:0]          mpool.c:42   UCX  WARN  object 0xb727880 was not returned to mpool ucp_requests
[1704049255.017969] [gra1029:19060:0]          mpool.c:42   UCX  WARN  object 0xb727a40 was not returned to mpool ucp_requests
[1704049255.018045] [gra1029:19060:0]          mpool.c:42   UCX  WARN  object 0xb727c00 was not returned to mpool ucp_requests
[1704049255.018119] [gra1029:19060:0]          mpool.c:42   UCX  WARN  object 0xb727dc0 was not returned to mpool ucp_requests


           ************************************************************
           *        Program running with 8 parallel MPI-processes     *
           *              working on a common directory               *
           ************************************************************
-------------------------------------------------------------------------------
                                 ORCA SCF
-------------------------------------------------------------------------------

------------
SCF SETTINGS
------------
Hamiltonian:
 Ab initio Hamiltonian  Method          .... Hartree-Fock(GTOs)


General Settings:
 Integral files         IntName         .... Fentanyl_OProt_21
 Hartree-Fock type      HFTyp           .... RHF
 Total Charge           Charge          ....    1
 Multiplicity           Mult            ....    1
 Number of Electrons    NEL             ....  182
 Basis Dimension        Dim             ....  949
 Nuclear Repulsion      ENuc            ....   2318.7056866061 Eh

Convergence Acceleration:
 DIIS                   CNVDIIS         .... on
   Start iteration      DIISMaxIt       ....    12
   Startup error        DIISStart       ....  0.200000
   # of expansion vecs  DIISMaxEq       ....     5
   Bias factor          DIISBfac        ....   1.050
   Max. coefficient     DIISMaxC        ....  10.000
 Trust-Rad. Augm. Hess. CNVTRAH         .... auto
   Auto Start mean grad. ratio tolernc. ....  1.125000
   Auto Start start iteration           ....    20
   Auto Start num. interpolation iter.  ....    10
   Max. Number of Micro iterations      ....    16
   Max. Number of Macro iterations      .... Maxiter - #DIIS iter
   Number of Davidson start vectors     ....     2
   Converg. threshold I  (grad. norm)   ....   2.000e-06
   Converg. threshold II (energy diff.) ....   1.000e-09
   Grad. Scal. Fac. for Micro threshold ....   0.100
   Minimum threshold for Micro iter.    ....   0.010
   NR start threshold (gradient norm)   ....   0.001
   Initial trust radius                 ....   0.400
   Minimum AH scaling param. (alpha)    ....   1.000
   Maximum AH scaling param. (alpha)    .... 1000.000
   Orbital update algorithm             .... Taylor
   White noise on init. David. guess    .... on
   Maximum white noise                  ....   0.010
   Quad. conv. algorithm                .... NR
 SOSCF                  CNVSOSCF        .... on
   Start iteration      SOSCFMaxIt      ....   150
   Startup grad/error   SOSCFStart      ....  0.003300
 Level Shifting         CNVShift        .... on
   Level shift para.    LevelShift      ....    0.2500
   Turn off err/grad.   ShiftErr        ....    0.0010
 Zerner damping         CNVZerner       .... off
 Static damping         CNVDamp         .... on
   Fraction old density DampFac         ....    0.7000
   Max. Damping (<1)    DampMax         ....    0.9800
   Min. Damping (>=0)   DampMin         ....    0.0000
   Turn off err/grad.   DampErr         ....    0.1000
 Fernandez-Rico         CNVRico         .... off

SCF Procedure:
 Maximum # iterations   MaxIter         ....   125
 SCF integral mode      SCFMode         .... Direct
   Integral package                     .... SHARK and LIBINT hybrid scheme
 Reset frequency        DirectResetFreq ....    20
 Integral Threshold     Thresh          ....  1.000e-12 Eh
 Primitive CutOff       TCut            ....  1.000e-14 Eh

Convergence Tolerance:
 Convergence Check Mode ConvCheckMode   .... Total+1el-Energy
 Convergence forced     ConvForced      .... 1
 Energy Change          TolE            ....  1.000e-09 Eh
 1-El. energy change                    ....  1.000e-06 Eh
 Orbital Gradient       TolG            ....  2.000e-06
 Orbital Rotation angle TolX            ....  2.000e-06
 DIIS Error             TolErr          ....  1.000e-08


Diagonalization of the overlap matrix:
Smallest eigenvalue                        ... 5.420e-06
Time for diagonalization                   ...    0.308 sec
Threshold for overlap eigenvalues          ... 1.000e-08
Number of eigenvalues below threshold      ... 0
Time for construction of square roots      ...    0.205 sec
Total time needed                          ...    0.522 sec

Time for model grid setup =    0.533 sec

------------------------------
INITIAL GUESS: MODEL POTENTIAL
------------------------------
Loading Hartree-Fock densities                     ... done
Calculating cut-offs                               ... done
Initializing the effective Hamiltonian             ... done
Setting up the integral package (SHARK)            ... done
Starting the Coulomb interaction                   ... done (   1.5 sec)
Reading the grid                                   ... done
Mapping shells                                     ... done
Starting the XC term evaluation                    ... done (   0.5 sec)
Transforming the Hamiltonian                       ... done (   0.2 sec)
Diagonalizing the Hamiltonian                      ... done (   0.3 sec)
Back transforming the eigenvectors                 ... done (   0.1 sec)
Now organizing SCF variables                       ... done
                      ------------------
                      INITIAL GUESS DONE (   3.1 sec)
                      ------------------
--------------
SCF ITERATIONS
--------------
ITER       Energy         Delta-E        Max-DP      RMS-DP      [F,P]     Damp
               ***  Starting incremental Fock matrix formation  ***
  0  -1032.8592437671   0.000000000000 0.03927245  0.00057663  0.2949844 0.7000
  1  -1033.2140178549  -0.354774087784 0.03318648  0.00047646  0.2190084 0.7000
                               ***Turning on DIIS***
  2  -1033.4338485096  -0.219830654711 0.02648527  0.00033360  0.1614992 0.7000
  3  -1036.2778536305  -2.844005120883 0.01958423  0.00023991  0.1180305 0.7000
  4  -1035.8845989708   0.393254659711 0.04688645  0.00060944  0.0834613 0.0000
  5  -1033.9934298743   1.891169096484 0.00853018  0.00007484  0.0048333 0.0000
                      *** Initiating the SOSCF procedure ***
                           *** Shutting down DIIS ***
                      *** Re-Reading the Fockian *** 
                      *** Removing any level shift *** 
ITER      Energy       Delta-E        Grad      Rot      Max-DP    RMS-DP
  6  -1033.91795897   0.0754709071  0.001180  0.001180  0.004325  0.000041
               *** Restarting incremental Fock matrix formation ***
  7  -1033.90259682   0.0153621423  0.000547  0.001159  0.002473  0.000022
  8  -1033.90262843  -0.0000316023  0.000303  0.000933  0.002047  0.000018
  9  -1033.90263710  -0.0000086679  0.000105  0.000168  0.000668  0.000005
 10  -1033.90263818  -0.0000010837  0.000083  0.000266  0.000315  0.000003
 11  -1033.90263847  -0.0000002869  0.000033  0.000165  0.000055  0.000001
 12  -1033.90263853  -0.0000000671  0.000014  0.000040  0.000064  0.000001
 13  -1033.90263854  -0.0000000091  0.000003  0.000007  0.000026  0.000000
 14  -1033.90263854  -0.0000000012  0.000002  0.000004  0.000003  0.000000
                  ***Gradient check signals convergence***
              ***Rediagonalizing the Fockian in SOSCF/NRSCF***

               *****************************************************
               *                     SUCCESS                       *
               *           SCF CONVERGED AFTER  15 CYCLES          *
               *****************************************************


----------------
TOTAL SCF ENERGY
----------------

Total Energy       :        -1033.90263854 Eh          -28133.92110 eV

Components:
Nuclear Repulsion  :         2318.70568661 Eh           63095.18943 eV
Electronic Energy  :        -3352.60832515 Eh          -91229.11053 eV
One Electron Energy:        -5993.13894917 Eh         -163081.60172 eV
Two Electron Energy:         2640.53062402 Eh           71852.49119 eV

Virial components:
Potential Energy   :        -2066.94213825 Eh          -56244.35499 eV
Kinetic Energy     :         1033.03949970 Eh           28110.43389 eV
Virial Ratio       :            2.00083553


---------------
SCF CONVERGENCE
---------------

  Last Energy change         ...    2.6830e-11  Tolerance :   1.0000e-09
  Last MAX-Density change    ...    4.6553e-06  Tolerance :   1.0000e-08
  Last RMS-Density change    ...    3.4561e-08  Tolerance :   1.0000e-09
  Last Orbital Gradient      ...    4.5575e-07  Tolerance :   2.0000e-06
  Last Orbital Rotation      ...    7.8882e-07  Tolerance :   2.0000e-06

             **** THE GBW FILE WAS UPDATED (Fentanyl_OProt_21.gbw) ****
             **** DENSITY Fentanyl_OProt_21.scfp WAS UPDATED ****
             **** ENERGY FILE WAS UPDATED (Fentanyl_OProt_21.en.tmp) ****
             **** THE GBW FILE WAS UPDATED (Fentanyl_OProt_21.gbw) ****
             **** DENSITY Fentanyl_OProt_21.scfp WAS UPDATED ****
----------------
ORBITAL ENERGIES
----------------

  NO   OCC          E(Eh)            E(eV) 
   0   2.0000     -20.788792      -565.6918 
   1   2.0000     -15.779498      -429.3820 
   2   2.0000     -15.624776      -425.1718 
   3   2.0000     -11.552784      -314.3672 
   4   2.0000     -11.409522      -310.4689 
   5   2.0000     -11.404316      -310.3272 
   6   2.0000     -11.400731      -310.2297 
   7   2.0000     -11.374119      -309.5055 
   8   2.0000     -11.366368      -309.2946 
   9   2.0000     -11.364204      -309.2357 
  10   2.0000     -11.357943      -309.0653 
  11   2.0000     -11.357345      -309.0491 
  12   2.0000     -11.355523      -308.9995 
  13   2.0000     -11.348789      -308.8162 
  14   2.0000     -11.346071      -308.7423 
  15   2.0000     -11.337559      -308.5107 
  16   2.0000     -11.333319      -308.3953 
  17   2.0000     -11.327616      -308.2401 
  18   2.0000     -11.323280      -308.1221 
  19   2.0000     -11.319531      -308.0201 
  20   2.0000     -11.317090      -307.9537 
  21   2.0000     -11.314445      -307.8817 
  22   2.0000     -11.314245      -307.8763 
  23   2.0000     -11.312150      -307.8192 
  24   2.0000     -11.307939      -307.7047 
  25   2.0000      -1.634367       -44.4734 
  26   2.0000      -1.454759       -39.5860 
  27   2.0000      -1.331027       -36.2191 
  28   2.0000      -1.282977       -34.9116 
  29   2.0000      -1.242966       -33.8228 
  30   2.0000      -1.232882       -33.5484 
  31   2.0000      -1.192318       -32.4446 
  32   2.0000      -1.155960       -31.4553 
  33   2.0000      -1.149229       -31.2721 
  34   2.0000      -1.142288       -31.0832 
  35   2.0000      -1.125898       -30.6372 
  36   2.0000      -1.100261       -29.9396 
  37   2.0000      -1.080586       -29.4042 
  38   2.0000      -1.056040       -28.7363 
  39   2.0000      -1.019594       -27.7446 
  40   2.0000      -0.993118       -27.0241 
  41   2.0000      -0.972909       -26.4742 
  42   2.0000      -0.960092       -26.1254 
  43   2.0000      -0.944909       -25.7123 
  44   2.0000      -0.937108       -25.5000 
  45   2.0000      -0.912538       -24.8314 
  46   2.0000      -0.891332       -24.2544 
  47   2.0000      -0.881897       -23.9976 
  48   2.0000      -0.869871       -23.6704 
  49   2.0000      -0.856398       -23.3038 
  50   2.0000      -0.830370       -22.5955 
  51   2.0000      -0.821534       -22.3551 
  52   2.0000      -0.790893       -21.5213 
  53   2.0000      -0.782964       -21.3055 
  54   2.0000      -0.770358       -20.9625 
  55   2.0000      -0.754526       -20.5317 
  56   2.0000      -0.752690       -20.4817 
  57   2.0000      -0.740866       -20.1600 
  58   2.0000      -0.735053       -20.0018 
  59   2.0000      -0.726497       -19.7690 
  60   2.0000      -0.726121       -19.7588 
  61   2.0000      -0.720522       -19.6064 
  62   2.0000      -0.717615       -19.5273 
  63   2.0000      -0.710719       -19.3396 
  64   2.0000      -0.699908       -19.0455 
  65   2.0000      -0.696695       -18.9580 
  66   2.0000      -0.677819       -18.4444 
  67   2.0000      -0.672979       -18.3127 
  68   2.0000      -0.669517       -18.2185 
  69   2.0000      -0.667978       -18.1766 
  70   2.0000      -0.663058       -18.0427 
  71   2.0000      -0.657372       -17.8880 
  72   2.0000      -0.645476       -17.5643 
  73   2.0000      -0.640989       -17.4422 
  74   2.0000      -0.635783       -17.3005 
  75   2.0000      -0.631248       -17.1771 
  76   2.0000      -0.618874       -16.8404 
  77   2.0000      -0.615395       -16.7457 
  78   2.0000      -0.606428       -16.5017 
  79   2.0000      -0.595778       -16.2119 
  80   2.0000      -0.586711       -15.9652 
  81   2.0000      -0.577604       -15.7174 
  82   2.0000      -0.572247       -15.5716 
  83   2.0000      -0.562409       -15.3039 
  84   2.0000      -0.558679       -15.2024 
  85   2.0000      -0.550629       -14.9834 
  86   2.0000      -0.469931       -12.7875 
  87   2.0000      -0.467305       -12.7160 
  88   2.0000      -0.425985       -11.5916 
  89   2.0000      -0.422994       -11.5103 
  90   2.0000      -0.409060       -11.1311 
  91   0.0000      -0.020079        -0.5464 
  92   0.0000      -0.018268        -0.4971 
  93   0.0000      -0.005314        -0.1446 
  94   0.0000       0.002040         0.0555 
  95   0.0000       0.025239         0.6868 
  96   0.0000       0.031198         0.8489 
  97   0.0000       0.038173         1.0387 
  98   0.0000       0.040277         1.0960 
  99   0.0000       0.050664         1.3786 
 100   0.0000       0.058049         1.5796 
 101   0.0000       0.060314         1.6412 
 102   0.0000       0.071428         1.9437 
 103   0.0000       0.074467         2.0263 
 104   0.0000       0.078602         2.1389 
 105   0.0000       0.080346         2.1863 
 106   0.0000       0.089433         2.4336 
 107   0.0000       0.092209         2.5091 
 108   0.0000       0.093775         2.5517 
 109   0.0000       0.102346         2.7850 
 110   0.0000       0.106457         2.8968 
 111   0.0000       0.109539         2.9807 
 112   0.0000       0.110471         3.0061 
 113   0.0000       0.121013         3.2929 
 114   0.0000       0.123279         3.3546 
 115   0.0000       0.127428         3.4675 
 116   0.0000       0.132141         3.5957 
 117   0.0000       0.136769         3.7217 
 118   0.0000       0.140457         3.8220 
 119   0.0000       0.152810         4.1582 
 120   0.0000       0.154000         4.1906 
 121   0.0000       0.159379         4.3369 
 122   0.0000       0.163520         4.4496 
 123   0.0000       0.164632         4.4799 
 124   0.0000       0.173309         4.7160 
 125   0.0000       0.176532         4.8037 
 126   0.0000       0.182685         4.9711 
 127   0.0000       0.185515         5.0481 
 128   0.0000       0.190527         5.1845 
 129   0.0000       0.191687         5.2161 
 130   0.0000       0.199454         5.4274 
 131   0.0000       0.201702         5.4886 
 132   0.0000       0.210706         5.7336 
 133   0.0000       0.217191         5.9101 
 134   0.0000       0.217653         5.9226 
 135   0.0000       0.219903         5.9839 
 136   0.0000       0.223771         6.0891 
 137   0.0000       0.225755         6.1431 
 138   0.0000       0.234728         6.3873 
 139   0.0000       0.237590         6.4651 
 140   0.0000       0.242584         6.6011 
 141   0.0000       0.247046         6.7225 
 142   0.0000       0.251933         6.8554 
 143   0.0000       0.252915         6.8822 
 144   0.0000       0.260299         7.0831 
 145   0.0000       0.268658         7.3106 
 146   0.0000       0.270951         7.3729 
 147   0.0000       0.273827         7.4512 
 148   0.0000       0.278188         7.5699 
 149   0.0000       0.282283         7.6813 
 150   0.0000       0.284203         7.7336 
 151   0.0000       0.290089         7.8937 
 152   0.0000       0.290796         7.9130 
 153   0.0000       0.296480         8.0676 
 154   0.0000       0.298158         8.1133 
 155   0.0000       0.302298         8.2260 
 156   0.0000       0.311917         8.4877 
 157   0.0000       0.316878         8.6227 
 158   0.0000       0.322226         8.7682 
 159   0.0000       0.327118         8.9013 
 160   0.0000       0.332371         9.0443 
 161   0.0000       0.337816         9.1925 
 162   0.0000       0.340051         9.2532 
 163   0.0000       0.346493         9.4286 
 164   0.0000       0.352366         9.5884 
 165   0.0000       0.360263         9.8032 
 166   0.0000       0.367461         9.9991 
 167   0.0000       0.369414        10.0523 
 168   0.0000       0.373221        10.1559 
 169   0.0000       0.375772        10.2253 
 170   0.0000       0.383389        10.4325 
 171   0.0000       0.390388        10.6230 
 172   0.0000       0.395039        10.7496 
 173   0.0000       0.396894        10.8000 
 174   0.0000       0.401031        10.9126 
 175   0.0000       0.402930        10.9643 
 176   0.0000       0.408983        11.1290 
 177   0.0000       0.417460        11.3597 
 178   0.0000       0.420466        11.4415 
 179   0.0000       0.424054        11.5391 
 180   0.0000       0.425804        11.5867 
 181   0.0000       0.428411        11.6577 
 182   0.0000       0.431623        11.7451 
 183   0.0000       0.433866        11.8061 
 184   0.0000       0.436628        11.8813 
 185   0.0000       0.439118        11.9490 
 186   0.0000       0.448591        12.2068 
 187   0.0000       0.449583        12.2338 
 188   0.0000       0.454179        12.3588 
 189   0.0000       0.459451        12.5023 
 190   0.0000       0.462351        12.5812 
 191   0.0000       0.464813        12.6482 
 192   0.0000       0.468308        12.7433 
 193   0.0000       0.472494        12.8572 
 194   0.0000       0.475518        12.9395 
 195   0.0000       0.479273        13.0417 
 196   0.0000       0.483230        13.1494 
 197   0.0000       0.487236        13.2584 
 198   0.0000       0.488475        13.2921 
 199   0.0000       0.493768        13.4361 
 200   0.0000       0.497054        13.5255 
 201   0.0000       0.500633        13.6229 
 202   0.0000       0.502093        13.6627 
 203   0.0000       0.506820        13.7913 
 204   0.0000       0.509694        13.8695 
 205   0.0000       0.512139        13.9360 
 206   0.0000       0.515329        14.0228 
 207   0.0000       0.518315        14.1041 
 208   0.0000       0.523627        14.2486 
 209   0.0000       0.527328        14.3493 
 210   0.0000       0.531034        14.4502 
 211   0.0000       0.532815        14.4986 
 212   0.0000       0.533773        14.5247 
 213   0.0000       0.539350        14.6765 
 214   0.0000       0.541359        14.7311 
 215   0.0000       0.546540        14.8721 
 216   0.0000       0.551748        15.0138 
 217   0.0000       0.554019        15.0756 
 218   0.0000       0.557356        15.1664 
 219   0.0000       0.561482        15.2787 
 220   0.0000       0.562293        15.3008 
 221   0.0000       0.566076        15.4037 
 222   0.0000       0.567912        15.4537 
 223   0.0000       0.574345        15.6287 
 224   0.0000       0.580613        15.7993 
 225   0.0000       0.582487        15.8503 
 226   0.0000       0.589768        16.0484 
 227   0.0000       0.592220        16.1151 
 228   0.0000       0.598175        16.2772 
 229   0.0000       0.606763        16.5109 
 230   0.0000       0.609310        16.5802 
 231   0.0000       0.610884        16.6230 
 232   0.0000       0.620400        16.8819 
 233   0.0000       0.621112        16.9013 
 234   0.0000       0.625241        17.0137 
 235   0.0000       0.627990        17.0885 
 236   0.0000       0.633908        17.2495 
 237   0.0000       0.642260        17.4768 
 238   0.0000       0.651135        17.7183 
 239   0.0000       0.653048        17.7703 
 240   0.0000       0.658520        17.9192 
 241   0.0000       0.660897        17.9839 
 242   0.0000       0.671868        18.2825 
 243   0.0000       0.672067        18.2879 
 244   0.0000       0.688033        18.7223 
 245   0.0000       0.689991        18.7756 
 246   0.0000       0.690894        18.8002 
 247   0.0000       0.695959        18.9380 
 248   0.0000       0.698371        19.0036 
 249   0.0000       0.703151        19.1337 
 250   0.0000       0.715053        19.4576 
 251   0.0000       0.723346        19.6832 
 252   0.0000       0.733711        19.9653 
 253   0.0000       0.736076        20.0296 
 254   0.0000       0.737348        20.0643 
 255   0.0000       0.747949        20.3527 
 256   0.0000       0.749809        20.4034 
 257   0.0000       0.767924        20.8963 
 258   0.0000       0.774309        21.0700 
 259   0.0000       0.784866        21.3573 
 260   0.0000       0.787393        21.4260 
 261   0.0000       0.789782        21.4911 
 262   0.0000       0.793391        21.5893 
 263   0.0000       0.794453        21.6182 
 264   0.0000       0.805602        21.9215 
 265   0.0000       0.816516        22.2185 
 266   0.0000       0.821905        22.3652 
 267   0.0000       0.823102        22.3977 
 268   0.0000       0.826025        22.4773 
 269   0.0000       0.835262        22.7286 
 270   0.0000       0.838229        22.8094 
 271   0.0000       0.848859        23.0986 
 272   0.0000       0.851221        23.1629 
 273   0.0000       0.852351        23.1937 
 274   0.0000       0.863627        23.5005 
 275   0.0000       0.867054        23.5937 
 276   0.0000       0.869834        23.6694 
 277   0.0000       0.877401        23.8753 
 278   0.0000       0.881472        23.9861 
 279   0.0000       0.888317        24.1723 
 280   0.0000       0.893778        24.3209 
 281   0.0000       0.902073        24.5467 
 282   0.0000       0.904995        24.6262 
 283   0.0000       0.912846        24.8398 
 284   0.0000       0.915242        24.9050 
 285   0.0000       0.925674        25.1889 
 286   0.0000       0.929036        25.2804 
 287   0.0000       0.932307        25.3694 
 288   0.0000       0.938734        25.5443 
 289   0.0000       0.945429        25.7264 
 290   0.0000       0.953636        25.9498 
 291   0.0000       0.958846        26.0915 
 292   0.0000       0.963148        26.2086 
 293   0.0000       0.968793        26.3622 
 294   0.0000       0.977348        26.5950 
 295   0.0000       0.985001        26.8032 
 296   0.0000       0.989740        26.9322 
 297   0.0000       0.990655        26.9571 
 298   0.0000       0.999026        27.1849 
 299   0.0000       1.004551        27.3352 
 300   0.0000       1.006812        27.3967 
 301   0.0000       1.008631        27.4462 
 302   0.0000       1.020621        27.7725 
 303   0.0000       1.025905        27.9163 
 304   0.0000       1.031177        28.0597 
 305   0.0000       1.049446        28.5569 
 306   0.0000       1.051107        28.6021 
 307   0.0000       1.054839        28.7036 
 308   0.0000       1.064500        28.9665 
 309   0.0000       1.072004        29.1707 
 310   0.0000       1.074262        29.2321 
 311   0.0000       1.088922        29.6311 
 312   0.0000       1.099350        29.9148 
 313   0.0000       1.101825        29.9822 
 314   0.0000       1.107268        30.1303 
 315   0.0000       1.117319        30.4038 
 316   0.0000       1.123935        30.5838 
 317   0.0000       1.132411        30.8145 
 318   0.0000       1.134860        30.8811 
 319   0.0000       1.149499        31.2794 
 320   0.0000       1.150783        31.3144 
 321   0.0000       1.162799        31.6414 
 322   0.0000       1.171892        31.8888 
 323   0.0000       1.172823        31.9141 
 324   0.0000       1.177917        32.0528 
 325   0.0000       1.185156        32.2497 
 326   0.0000       1.192722        32.4556 
 327   0.0000       1.200224        32.6597 
 328   0.0000       1.205751        32.8102 
 329   0.0000       1.211699        32.9720 
 330   0.0000       1.218063        33.1452 
 331   0.0000       1.225912        33.3588 
 332   0.0000       1.230564        33.4854 
 333   0.0000       1.238385        33.6982 
 334   0.0000       1.247958        33.9587 
 335   0.0000       1.253162        34.1003 
 336   0.0000       1.255787        34.1717 
 337   0.0000       1.260832        34.3090 
 338   0.0000       1.264130        34.3987 
 339   0.0000       1.269720        34.5508 
 340   0.0000       1.281079        34.8599 
 341   0.0000       1.296166        35.2705 
 342   0.0000       1.303050        35.4578 
 343   0.0000       1.305027        35.5116 
 344   0.0000       1.313425        35.7401 
 345   0.0000       1.321260        35.9533 
 346   0.0000       1.327101        36.1123 
 347   0.0000       1.335221        36.3332 
 348   0.0000       1.341605        36.5069 
 349   0.0000       1.345478        36.6123 
 350   0.0000       1.355776        36.8925 
 351   0.0000       1.360765        37.0283 
 352   0.0000       1.368029        37.2260 
 353   0.0000       1.375252        37.4225 
 354   0.0000       1.380583        37.5676 
 355   0.0000       1.384599        37.6769 
 356   0.0000       1.388911        37.7942 
 357   0.0000       1.395214        37.9657 
 358   0.0000       1.399660        38.0867 
 359   0.0000       1.405194        38.2373 
 360   0.0000       1.415053        38.5055 
 361   0.0000       1.425170        38.7808 
 362   0.0000       1.429637        38.9024 
 363   0.0000       1.439988        39.1841 
 364   0.0000       1.445371        39.3306 
 365   0.0000       1.450259        39.4635 
 366   0.0000       1.455861        39.6160 
 367   0.0000       1.467349        39.9286 
 368   0.0000       1.471613        40.0446 
 369   0.0000       1.479899        40.2701 
 370   0.0000       1.485439        40.4208 
 371   0.0000       1.496374        40.7184 
 372   0.0000       1.499240        40.7964 
 373   0.0000       1.503822        40.9211 
 374   0.0000       1.514487        41.2113 
 375   0.0000       1.521943        41.4142 
 376   0.0000       1.532654        41.7056 
 377   0.0000       1.542513        41.9739 
 378   0.0000       1.546642        42.0863 
 379   0.0000       1.552374        42.2422 
 380   0.0000       1.564594        42.5748 
 381   0.0000       1.574076        42.8328 
 382   0.0000       1.583035        43.0766 
 383   0.0000       1.601340        43.5747 
 384   0.0000       1.603583        43.6357 
 385   0.0000       1.616328        43.9825 
 386   0.0000       1.620084        44.0847 
 387   0.0000       1.633883        44.4602 
 388   0.0000       1.635336        44.4998 
 389   0.0000       1.641518        44.6680 
 390   0.0000       1.646082        44.7922 
 391   0.0000       1.651579        44.9418 
 392   0.0000       1.653788        45.0019 
 393   0.0000       1.661750        45.2185 
 394   0.0000       1.671337        45.4794 
 395   0.0000       1.674239        45.5584 
 396   0.0000       1.682833        45.7922 
 397   0.0000       1.687005        45.9057 
 398   0.0000       1.691321        46.0232 
 399   0.0000       1.696632        46.1677 
 400   0.0000       1.699282        46.2398 
 401   0.0000       1.706578        46.4384 
 402   0.0000       1.714905        46.6649 
 403   0.0000       1.720134        46.8072 
 404   0.0000       1.724726        46.9322 
 405   0.0000       1.735613        47.2284 
 406   0.0000       1.742565        47.4176 
 407   0.0000       1.748664        47.5836 
 408   0.0000       1.755875        47.7798 
 409   0.0000       1.763330        47.9826 
 410   0.0000       1.768412        48.1209 
 411   0.0000       1.771431        48.2031 
[...]
sum of all corrections                                         -0.037023817358
Initial total correlation energy                               -3.988223568629
Thresholds for map construction and integral transformation for fine MP2 and CCSD(T) calculation:
   TCutMKN   ...     1.0e-03
   TCutDO    ...     1.0e-02
   TCutPairs ...     1.0e-04
   TCutCMO   ...     1.0e-03
   TCutCPAO  ...     1.0e-03

Thresholds for map construction and integral transformation for strong Triples:
   TCutMKN   ...     1.0e-02
   TCutDO    ...     2.0e-02
   TCutCMO   ...     1.0e-03
   TCutCPAO  ...     1.0e-03

Thresholds for map construction and integral transformation for weak Triples:
   TCutMKN   ...     1.0e-01
   TCutDO    ...     4.0e-02
   TCutCMO   ...     1.0e-03
   TCutCPAO  ...     1.0e-03

--------------------------------
LOCAL RI TRANSFORMATION (IAVPAO)
--------------------------------

Orbital window:      25 to 90
Number of PAOs:     949
Basis functions:    949 (391 shells)
Aux. functions:    2335 (753 shells)
Use SHARK:           on

Processing maps (0.1 sec)
Average map sizes:
   Aux shells -> MOs              58.4
   Aux shells -> PAOs            949.0
   MOs        -> AO shells       336.9
   PAOs       -> AO shells       383.6

Calculating integrals (11.9 sec, 1000.339 MB)
Sorting integrals (2.6 sec, 999.282 MB)
Total time for the integral transformation: 14.8 sec
--------------------------------
INITIAL GUESS AND PNO GENERATION
--------------------------------

PNO truncation parameters                   .... 
    PAOOverlapThresh   =        1.000e-08

    TCutPairs          =        1.000e-04
    TCutPNO            =        3.330e-07
    TCutPNOSingles     =        9.990e-09
    TCutMP2Pairs       =        1.000e-05
    TCutMKN            =        1.000e-03
    TCutDO             =        1.000e-02

Pair selection                          .... not used
Type of local MP2 treatment                 .... semi-local MP2
Strategy for PNO selection                  .... occupation number selection
Pair density normalization                  .... MP2 norm
Spin component scaling                      .... not used

   .... Finished loop over pairs

 PNO Occupation Number Statistics: 
  | Av. % of trace(Dij) retained        ...  97.425262274521
  | sigma^2 in % of trace(Dij) retained ...   6.10e+00
  | Av. % of trace(Di) retained         ...  99.999016726171
  | sigma^2 in % of trace(Di) retained  ...   1.17e-07
 Distributions of % trace(Dij) recovered:
  |       >= 99.9  ...   206 ( 15.1 % of all pairs)
  |   [70.0, 80.0) ...     1 (  0.1 % of all pairs)
  |   [80.0, 90.0) ...    13 (  1.0 % of all pairs)
  |   [90.0, 99.0) ...   873 ( 64.0 % of all pairs)
  |   [99.0, 99.9) ...   270 ( 19.8 % of all pairs)
 Distributions of % trace(Di) recovered :
  |       >= 99.9  ...    66 (100.0 % of all I-pairs )

Making pair pair interaction lists          ... done

                       ===========================
                        759 OF 1363 PAIRS ARE KEPT
                       ===========================

Total time spent in the initial guess                 ...    87.620 sec
SL-MP2 correlation energy (all non-screened pairs)    ...      -3.990310453851 Eh

Initial PNO correlation energy                        ...      -3.955962874790 Eh
sum of pair energies estimated for screened out pairs ...      -0.002840974278 Eh
sum of MP2 pair energies for pairs that were not kept ...      -0.022108553434 Eh
sum of PNO error estimates for the kept pairs         ...      -0.012332246103 Eh
                                                          --------------------
sum of all corrections                                         -0.037281773815
Initial total correlation energy                               -3.993244648604
Thresholds for map construction and integral transformation for fine MP2 and CCSD(T) calculation:
   TCutMKN   ...     1.0e-03
   TCutDO    ...     1.0e-02
   TCutPairs ...     1.0e-04
   TCutCMO   ...     1.0e-03
   TCutCPAO  ...     1.0e-03

Time for aux screen maps:            0.014
Time for maps after fine MP2:            0.101
-----------------------------
LOCAL RI TRANSFORMATION (IJV)
-----------------------------

Orbital window:      25 to 90
Basis functions:    949 (391 shells)
Aux. functions:    2335 (753 shells)
Use SHARK:           on

Processing maps (0.0 sec)
Average map sizes:
   Aux shells -> MOs(i)           48.0
   Aux shells -> MOs(j)           66.0
   MOs        -> AO shells       336.9

Calculating integrals (9.1 sec, 57.732 MB)
Sorting integrals (0.2 sec, 57.706 MB)
Total time for the integral transformation: 9.4 sec
--------------------------------
LOCAL RI TRANSFORMATION (VABPAO)
--------------------------------

Number of PAOs:     949
Basis functions:    949 (391 shells)
Aux. functions:    2335 (753 shells)
Use SHARK:           on

Processing maps (0.0 sec)
Average map sizes:
   Aux shells -> PAOs            912.5
   PAOs       -> AO shells       383.6

Calculating integrals (41.3 sec, 15081.670 MB)
Finished


-------------------------------------
Pair Pair Term precalculation with     
RI-(ij|mn) and (im|jn) transformation  
ON THE FLY                             
-------------------------------------

   IBatch   1 (of   8)              ... done (   45.963 sec)
   IBatch   2 (of   8)              ... done (   53.414 sec)
   IBatch   3 (of   8)              ... done (   66.959 sec)
   IBatch   4 (of   8)              ... done (   70.140 sec)
   IBatch   5 (of   8)              ... done (   76.321 sec)
   IBatch   6 (of   8)              ... done (   84.036 sec)
   IBatch   7 (of   8)              ... done (  117.561 sec)
   IBatch   8 (of   8)              ... done (  133.524 sec)
Total EXT                           ...         647.920 sec

---------------------
RI-PNO TRANSFORMATION
---------------------

Total Number of PNOs                   ... 23572
Average number of PNOs per pair        ...    31
Maximal number of PNOs per pair        ...    80
   #pairs with  1 -  5 PNOs   :    0
   #pairs with  6 - 10 PNOs   :   46
   #pairs with 11 - 15 PNOs   :  123
   #pairs with 16 - 20 PNOs   :   94
   #pairs with 21 - 25 PNOs   :   46
   #pairs with 26 - 30 PNOs   :   78
   #pairs with 31 - 35 PNOs   :  107
   #pairs with 36 - 40 PNOs   :   53
   #pairs with 41 - 45 PNOs   :   60
   #pairs with 46 - 50 PNOs   :   79
   #pairs with 51 - 55 PNOs   :    8
   #pairs with 56 - 60 PNOs   :   23
   #pairs with 61 - 65 PNOs   :   12
   #pairs with 71 - 75 PNOs   :   24
   #pairs with 76 - 80 PNOs   :    6

Generation of (ij|ab)[P] integrals            ... on
Generation of (ia|bc)[P],(ja|bc)[P] integrals ... on
Storage of 3 and 4 external integrals         ... on
Generation of ALL (ka|bc)[P] integrals        ... on
Keep RI integrals in memory                   ... off

Ibatch:  1 (of  2)
Starting 2-4 index PNO integral generation ... done

Ibatch:  2 (of  2)
Starting 2-4 index PNO integral generation ... done

Timings:
Total PNO integral transformation time     ...        345.521 sec
Size of the 3-external file                ...       343 MB
Size of the 4-external file                ...      2326 MB
Size of the IKJL file                      ...         1 MB
Size of the all 3-external file            ...     10190 MB
Size of the 1-external file                ...        32 MB

Making pair/pair overlap matrices          ... done (   65.588 sec)
Size of the pair overlap file              ... 2967 MB
Redoing the guess amplitudes               ... done (    0.032 sec)

-------------------------
FINAL STARTUP INFORMATION
-------------------------

E(0)                                       ...  -1033.902638543
E(SL-MP2)                                  ...     -3.990310454
E(SL-MP2) including corrections            ...     -3.993244649
Initial E(tot)                             ...  -1037.895883192
<T|T>                                      ...      1.174489567
Number of pairs included                   ... 759
Total number of pairs                      ... 2211

------------------------------------------------
                  RHF COUPLED CLUSTER ITERATIONS
------------------------------------------------

Number of PNO amplitudes to be optimized   ...       935884
Number of non-PNO amplitudes               ...    558748476
Untruncated number of regular amplitudes   ...   1627658604

Iter       E(tot)           E(Corr)          Delta-E          Residual     Time
  0  -1037.895975050     -3.956054733      0.034255721      0.016841860   65.84
                           *** Turning on DIIS ***
  1  -1038.058880491     -4.118960174     -0.162905441      0.009273510   67.47
  2  -1038.163697082     -4.223776765     -0.104816591      0.004590581   65.80
  3  -1038.181548826     -4.241628509     -0.017851744      0.002496673   65.73
  4  -1038.186469464     -4.246549147     -0.004920638      0.001326902   65.57
  5  -1038.187955926     -4.248035609     -0.001486462      0.000693113   65.38
  6  -1038.188405196     -4.248484879     -0.000449270      0.000275223   66.63
  7  -1038.188439815     -4.248519498     -0.000034619      0.000134146   66.82
  8  -1038.188453191     -4.248532874     -0.000013376      0.000070299   67.59
  9  -1038.188437968     -4.248517651      0.000015223      0.000039096   67.86
 10  -1038.188441713     -4.248521396     -0.000003745      0.000015962   65.34
 11  -1038.188440539     -4.248520222      0.000001174      0.000005009   66.89
 12  -1038.188441069     -4.248520752     -0.000000529      0.000001768   67.53
 13  -1038.188440750     -4.248520433      0.000000319      0.000000493   85.00
               --- The Coupled-Cluster iterations have converged ---

----------------------
COUPLED CLUSTER ENERGY
----------------------

E(0)                                       ...  -1033.902638543
E(CORR)(strong-pairs)                      ...     -4.248520433
E(CORR)(weak-pairs)                        ...     -0.037281774
E(CORR)(corrected)                         ...     -4.285802206
E(TOT)                                     ...  -1038.188440750
Singles Norm <S|S>**1/2                    ...      0.118078369  
T1 diagnostic                              ...      0.010277403  

------------------
LARGEST AMPLITUDES
------------------
  40-> 91  40-> 91       0.049693
  37-> 93  37-> 93       0.048071
  39-> 91  39-> 91       0.047077
  42-> 93  42-> 93       0.046883
  86-> 95  86-> 95       0.044921
  89-> 95  89-> 95       0.044387
  82-> 95  82-> 95       0.044047
  33-> 91  33-> 91       0.044029
  31-> 91  31-> 91       0.043918
  88-> 95  88-> 95       0.043877
  83-> 95  83-> 95       0.043838
  84-> 95  84-> 95       0.043458
  28-> 92  28-> 92       0.043397
  35-> 91  35-> 91       0.042346
  87-> 95  87-> 95       0.041910
  29-> 93  29-> 93       0.040386


-------------------------------------------
DLPNO BASED TRIPLES CORRECTION
-------------------------------------------

Singles multiplier          ...  1.000000
TCutTNO                     ... 1.000e-09
TCutMP2Pairs                ... 1.000e-05
TCutDOStrong                ... 2.000e-02
TCutMKNStrong               ... 1.000e-02
TCutDOWeak                  ... 4.000e-02
TCutMKNWeak                 ... 1.000e-01

Fragment selection                          .... not used
Fock matrix occ-virt block is zero --> Setting DT_in_Triples to false.
Number of Triples that are to be computed   ...      8787

 . . . . . . . . .             (    239.525 sec)
 . . . . . . . . .
10% done  
20% done               (    292.991 sec)
 . . . . . . . . .
30% done  
40% done               (    352.480 sec)
 . . . . . . . . .
50% done  
60% done               (    368.295 sec)
 . . . . . . . . .
70% done  
80% done  
90% done               (    469.291 sec)
 . . . . . . . . .             (     45.203 sec)
Triples timings:
Total time for T0               ...  1892.739 sec
Total time for Iterative (T)    ...     0.000 sec
Total time of overall (T)       ...  1938.046 sec

Triples List generation         ...     0.000 sec
TNO generation                  ...   124.801 sec
Pair density generation         ...     0.038 sec
Look up tables                  ...     0.000 sec
Generating 3-index integrals    ...  1192.704 sec
  Make 4-ind.int. from 3-ind.int...   105.093 sec
  Projecting amplitudes (D + S) ...   373.208 sec
  Downprojecting integrals      ...     0.019 sec
  Energy contr. (sum over a,b,c)...    21.841 sec
Fitting ET(->0)                 ...     0.000 sec

Everything after 3-index        ...   575.081 sec

Timing details:
 TNO integrals                  ...  1285.780 sec
   Reading 3-index integrals    ...   144.792 sec
   Sorting integrals            ...   194.106 sec
       Sorting integrals 1      ...     0.016 sec
       Sorting integrals 2      ...   150.918 sec
       Sorting integrals 3      ...     7.626 sec
       Sorting integrals 4      ...     0.788 sec
       Sorting integrals 5      ...     2.265 sec
       Sorting integrals 6      ...    32.495 sec
   Calculating local VM**-1/2   ...     8.146 sec
   Orthogonal. integrals        ...    12.084 sec
   Multipl. 3-index integrals   ...   926.652 sec
   All concerning IRIab (w/TNO) ...    47.969 sec

 Calculate W0/W1                ...    74.851 sec
 W 3-ext contribution           ...    35.673 sec
 W 3-int contribution           ...    16.187 sec
 Sorting W                      ...    20.728 sec

 V exchange contribution        ...     5.800 sec

 Timings for Triples without generation
     of 3-index integrals       ...   575.044 sec
       0 weak pairs             ...   387.811 sec
       1 weak pair              ...   187.232 sec
       2 weak pairs             ...     0.000 sec
       3 weak pairs             ...     0.000 sec
  Extra time for extrapolation  ...     0.000 sec

Number of Triples   (0, 1, 2, 3 weak pairs; overall):   4713    4074       0       0  (  8787)
Number of Atoms     (0, 1, 2, 3 weak pairs; overall):   18.1    14.6     0.0     0.0  (    54)
Number of PAOs      (0, 1, 2, 3 weak pairs; overall):  381.0   327.0     0.0     0.0  (   949)
Number of AuxFcns   (0, 1, 2, 3 weak pairs; overall):  470.9   355.9     0.0     0.0  (  2335)
Number of TNOs      (0, 1, 2, 3 weak pairs         ):   85.2    56.4     0.0     0.0
Aver. Number of NTNO, Atoms, PAOs, AuxFcns / Triples:   8787    71.8    16.4   355.9   417.6

Triples Correction (T)                     ...     -0.193388307
Final correlation energy                   ...     -4.479190514
E(CCSD)                                    ...  -1038.188440750
E(CCSD(T))                                 ...  -1038.381829057



--------------------------------------------------------------------------------
                                    TIMINGS
--------------------------------------------------------------------------------


Total execution time                   ...     4608.910 sec

Localization of occupied MO's          ...        8.053 sec (  0.2%)
Fock Matrix Formation                  ...      359.437 sec (  7.8%)
Global overlap, Fock, MKN matrices     ...        2.029 sec (  0.0%)
Differential overlap integrals         ...        5.943 sec (  0.1%)
Organizing maps                        ...        0.273 sec (  0.0%)
RI 3-index integral generations        ...       81.380 sec (  1.8%)
RI-PNO integral transformation         ...     1123.946 sec ( 24.4%)
Initial Guess                          ...      138.934 sec (  3.0%)
DIIS Solver                            ...        2.431 sec (  0.1%)
State Vector Update                    ...        0.106 sec (  0.0%)
Sigma-vector construction              ...      946.913 sec ( 20.5%)
  <0|H|D>                              ...        0.004 sec (  0.0% of sigma)
  <D|H|D>(0-ext)                       ...       68.023 sec (  7.2% of sigma)
  <D|H|D>(2-ext Fock)                  ...        0.250 sec (  0.0% of sigma)
  <D|H|D>(2-ext)                       ...      126.529 sec ( 13.4% of sigma)
  <D|H|D>(4-ext)                       ...       54.632 sec (  5.8% of sigma)
  <D|H|D>(4-ext-corr)                  ...      298.029 sec ( 31.5% of sigma)
  CCSD doubles correction              ...        1.580 sec (  0.2% of sigma)
  <S|H|S>                              ...       10.746 sec (  1.1% of sigma)
  <S|H|D>(1-ext)                       ...        7.930 sec (  0.8% of sigma)
  <D|H|S>(1-ext)                       ...        0.480 sec (  0.1% of sigma)
  <S|H|D>(3-ext)                       ...        4.284 sec (  0.5% of sigma)
  CCSD singles correction              ...        0.010 sec (  0.0% of sigma)
  Fock-dressing                        ...      299.748 sec ( 31.7% of sigma)
  Singles amplitudes                   ...        9.002 sec (  1.0% of sigma)
  (ik|jl)-dressing                     ...       42.179 sec (  4.5% of sigma)
  (ij|ab),(ia|jb)-dressing             ...       14.537 sec (  1.5% of sigma)
  Pair energies                        ...        0.056 sec (  0.0% of sigma)
Total Time for computing (T)           ...     1938.083 sec ( 42.1% of ALL)


Maximum memory used throughout the entire MDCI-calculation: 3565.2 MB

-------------------------   --------------------
FINAL SINGLE POINT ENERGY     -1038.381829057081
-------------------------   --------------------


                            ***************************************
                            *     ORCA property calculations      *
                            ***************************************


  WARNING: The energy has been calculated at the MDCI level but the densities
           used in the property calculations are still SCF densities
           MDCI response densities have not been calculated 
           use %mdci Density linearized end
           or  %mdci Density unrelaxed end
           or  %mdci Density orbopt end

                                    ---------------------
                                    Active property flags
                                    ---------------------
   (+) Dipole Moment


------------------------------------------------------------------------------
                       ORCA ELECTRIC PROPERTIES CALCULATION
------------------------------------------------------------------------------

Dipole Moment Calculation                       ... on
Quadrupole Moment Calculation                   ... off
Polarizability Calculation                      ... off
GBWName                                         ... Fentanyl_OProt_21.gbw
Electron density                                ... Fentanyl_OProt_21.scfp
The origin for moment calculation is the CENTER OF MASS  = ( 0.005342, -0.016134 -0.007192)

-------------
DIPOLE MOMENT
-------------
                                X             Y             Z
Electronic contribution:      1.36233      -4.99838      -0.52168
Nuclear contribution   :      2.66644       5.15833       0.99074
                        -----------------------------------------
Total Dipole Moment    :      4.02878       0.15995       0.46906
                        -----------------------------------------
Magnitude (a.u.)       :      4.05914
Magnitude (Debye)      :     10.31752



--------------------
Rotational spectrum 
--------------------
 
Rotational constants in cm-1:     0.009851     0.005758     0.005057 
Rotational constants in MHz :   295.317812   172.621403   151.618709 

 Dipole components along the rotational axes: 
x,y,z [a.u.] :    -3.935379     0.688959     0.717478 
x,y,z [Debye]:   -10.002939     1.751194     1.823685 

 

Timings for individual modules:

Sum of individual times         ...     7677.513 sec (= 127.959 min)
GTO integral calculation        ...        3.936 sec (=   0.066 min)   0.1 %
SCF iterations                  ...     3060.062 sec (=  51.001 min)  39.9 %
MDCI module                     ...     4613.515 sec (=  76.892 min)  60.1 %
                             ****ORCA TERMINATED NORMALLY****
TOTAL RUN TIME: 0 days 2 hours 8 minutes 0 seconds 582 msec
