
Lmod is automatically replacing "intel/2020.1.217" with "gcc/10.3.0".


The following have been reloaded with a version change:
  1) gcccore/.9.3.0 => gcccore/.10.3.0        3) openmpi/4.0.3 => openmpi/4.1.1
  2) libfabric/1.10.1 => libfabric/1.12.1     4) ucx/1.8.0 => ucx/1.9.0

To execute ORCA, run: 
   ${EBROOTORCA}/orca orca.inp > orca.out
cp: cannot stat '/project/6006388/cieritan/Fentanyl_analogs/Fentanyl/O-Prot/CCSDT/*.hess': No such file or directory
cp: cannot stat '/project/6006388/cieritan/Fentanyl_analogs/Fentanyl/O-Prot/CCSDT/*.gbw': No such file or directory

                                 *****************
                                 * O   R   C   A *
                                 *****************

                                            #,                                       
                                            ###                                      
                                            ####                                     
                                            #####                                    
                                            ######                                   
                                           ########,                                 
                                     ,,################,,,,,                         
                               ,,#################################,,                 
                          ,,##########################################,,             
                       ,#########################################, ''#####,          
                    ,#############################################,,   '####,        
                  ,##################################################,,,,####,       
                ,###########''''           ''''###############################       
              ,#####''   ,,,,##########,,,,          '''####'''          '####       
            ,##' ,,,,###########################,,,                        '##       
           ' ,,###''''                  '''############,,,                           
         ,,##''                                '''############,,,,        ,,,,,,###''
      ,#''                                            '''#######################'''  
     '                                                          ''''####''''         
             ,#######,   #######,   ,#######,      ##                                
            ,#'     '#,  ##    ##  ,#'     '#,    #''#        ######   ,####,        
            ##       ##  ##   ,#'  ##            #'  '#       #        #'  '#        
            ##       ##  #######   ##           ,######,      #####,   #    #        
            '#,     ,#'  ##    ##  '#,     ,#' ,#      #,         ##   #,  ,#        
             '#######'   ##     ##  '#######'  #'      '#     #####' # '####'        



                  #######################################################
                  #                        -***-                        #
                  #          Department of theory and spectroscopy      #
                  #    Directorship and core code : Frank Neese         #
                  #        Max Planck Institute fuer Kohlenforschung    #
                  #                Kaiser Wilhelm Platz 1               #
                  #                 D-45470 Muelheim/Ruhr               #
                  #                      Germany                        #
                  #                                                     #
                  #                  All rights reserved                #
                  #                        -***-                        #
                  #######################################################


                         Program Version 5.0.4 -  RELEASE  -


 With contributions from (in alphabetic order):
   Daniel Aravena         : Magnetic Suceptibility
   Michael Atanasov       : Ab Initio Ligand Field Theory (pilot matlab implementation)
   Alexander A. Auer      : GIAO ZORA, VPT2 properties, NMR spectrum
   Ute Becker             : Parallelization
   Giovanni Bistoni       : ED, misc. LED, open-shell LED, HFLD
   Martin Brehm           : Molecular dynamics
   Dmytro Bykov           : SCF Hessian
   Vijay G. Chilkuri      : MRCI spin determinant printing, contributions to CSF-ICE
   Dipayan Datta          : RHF DLPNO-CCSD density
   Achintya Kumar Dutta   : EOM-CC, STEOM-CC
   Dmitry Ganyushin       : Spin-Orbit,Spin-Spin,Magnetic field MRCI
   Miquel Garcia          : C-PCM and meta-GGA Hessian, CC/C-PCM, Gaussian charge scheme
   Yang Guo               : DLPNO-NEVPT2, F12-NEVPT2, CIM, IAO-localization
   Andreas Hansen         : Spin unrestricted coupled pair/coupled cluster methods
   Benjamin Helmich-Paris : MC-RPA, TRAH-SCF, COSX integrals
   Lee Huntington         : MR-EOM, pCC
   Robert Izsak           : Overlap fitted RIJCOSX, COSX-SCS-MP3, EOM
   Marcus Kettner         : VPT2
   Christian Kollmar      : KDIIS, OOCD, Brueckner-CCSD(T), CCSD density, CASPT2, CASPT2-K
   Simone Kossmann        : Meta GGA functionals, TD-DFT gradient, OOMP2, MP2 Hessian
   Martin Krupicka        : Initial AUTO-CI
   Lucas Lang             : DCDCAS
   Marvin Lechner         : AUTO-CI (C++ implementation), FIC-MRCC
   Dagmar Lenk            : GEPOL surface, SMD
   Dimitrios Liakos       : Extrapolation schemes; Compound Job, initial MDCI parallelization
   Dimitrios Manganas     : Further ROCIS development; embedding schemes
   Dimitrios Pantazis     : SARC Basis sets
   Anastasios Papadopoulos: AUTO-CI, single reference methods and gradients
   Taras Petrenko         : DFT Hessian,TD-DFT gradient, ASA, ECA, R-Raman, ABS, FL, XAS/XES, NRVS
   Peter Pinski           : DLPNO-MP2, DLPNO-MP2 Gradient
   Christoph Reimann      : Effective Core Potentials
   Marius Retegan         : Local ZFS, SOC
   Christoph Riplinger    : Optimizer, TS searches, QM/MM, DLPNO-CCSD(T), (RO)-DLPNO pert. Triples
   Tobias Risthaus        : Range-separated hybrids, TD-DFT gradient, RPA, STAB
   Michael Roemelt        : Original ROCIS implementation
   Masaaki Saitow         : Open-shell DLPNO-CCSD energy and density
   Barbara Sandhoefer     : DKH picture change effects
   Avijit Sen             : IP-ROCIS
   Kantharuban Sivalingam : CASSCF convergence, NEVPT2, FIC-MRCI
   Bernardo de Souza      : ESD, SOC TD-DFT
   Georgi Stoychev        : AutoAux, RI-MP2 NMR, DLPNO-MP2 response
   Willem Van den Heuvel  : Paramagnetic NMR
   Boris Wezisla          : Elementary symmetry handling
   Frank Wennmohs         : Technical directorship


 We gratefully acknowledge several colleagues who have allowed us to
 interface, adapt or use parts of their codes:
   Stefan Grimme, W. Hujo, H. Kruse, P. Pracht,  : VdW corrections, initial TS optimization,
                  C. Bannwarth, S. Ehlert          DFT functionals, gCP, sTDA/sTD-DF
   Ed Valeev, F. Pavosevic, A. Kumar             : LibInt (2-el integral package), F12 methods
   Garnet Chan, S. Sharma, J. Yang, R. Olivares  : DMRG
   Ulf Ekstrom                                   : XCFun DFT Library
   Mihaly Kallay                                 : mrcc  (arbitrary order and MRCC methods)
   Jiri Pittner, Ondrej Demel                    : Mk-CCSD
   Frank Weinhold                                : gennbo (NPA and NBO analysis)
   Christopher J. Cramer and Donald G. Truhlar   : smd solvation model
   Lars Goerigk                                  : TD-DFT with DH, B97 family of functionals
   V. Asgeirsson, H. Jonsson                     : NEB implementation
   FAccTs GmbH                                   : IRC, NEB, NEB-TS, DLPNO-Multilevel, CI-OPT
                                                   MM, QMMM, 2- and 3-layer-ONIOM, Crystal-QMMM,
                                                   LR-CPCM, SF, NACMEs, symmetry and pop. for TD-DFT,
                                                   nearIR, NL-DFT gradient (VV10), updates on ESD,
                                                   ML-optimized integration grids
   S Lehtola, MJT Oliveira, MAL Marques          : LibXC Library
   Liviu Ungur et al                             : ANISO software


 Your calculation uses the libint2 library for the computation of 2-el integrals
 For citations please refer to: http://libint.valeyev.net

 Your ORCA version has been built with support for libXC version: 5.1.0
 For citations please refer to: https://tddft.org/programs/libxc/

 This ORCA versions uses:
   CBLAS   interface :  Fast vector & matrix operations
   LAPACKE interface :  Fast linear algebra routines
   SCALAPACK package :  Parallel linear algebra routines
   Shared memory     :  Shared parallel matrices
   BLAS/LAPACK       :  OpenBLAS 0.3.15  USE64BITINT DYNAMIC_ARCH NO_AFFINITY Haswell SINGLE_THREADED
        Core in use  :  Haswell
   Copyright (c) 2011-2014, The OpenBLAS Project


================================================================================

----- Orbital basis set information -----
Your calculation utilizes the basis: def2-TZVP
   F. Weigend and R. Ahlrichs, Phys. Chem. Chem. Phys. 7, 3297 (2005).

----- AuxC basis set information -----
Your calculation utilizes the auxiliary basis: def2-TZVP/C
  H-La, Hf-Rn : A. Hellweg, C. Hattig, S. Hofener and W. Klopper, Theor. Chem. Acc. 117, 587 (2007).
        Ce-Lu : J. Chmela and M. E. Harding, Mol. Phys. (2018).

================================================================================
                                        WARNINGS
                       Please study these warnings very carefully!
================================================================================


WARNING: Post HF methods need fully converged wavefunctions
  ===> : Setting SCFConvForced true
         You can overwrite this default with %scf ConvForced false 


WARNING: MDCI localization with Augmented Hessian Foster-Boys
  ===> : Switching off randomization!

INFO   : the flag for use of the SHARK integral package has been found!

================================================================================
                                       INPUT FILE
================================================================================
NAME = Fentanyl_OProt_1.inp
|  1> ! DLPNO-CCSD(T) def2-TZVP def2-TZVP/C VeryTightSCF
|  2> %maxcore 3400
|  3> 
|  4> %pal nprocs 8 
|  5> end
|  6> 
|  7> *xyz 1 1
|  8> O             3.429640         2.292988         0.350179
|  9> N            -1.874803         1.980031         0.045993
| 10> N             2.080014         0.597489        -0.155206
| 11> C             0.917000         1.546948        -0.242556
| 12> C            -0.073705         1.093192        -1.306719
| 13> C             0.261035         1.683618         1.129777
| 14> C            -1.297460         2.006715        -1.277894
| 15> C            -0.987086         2.559570         1.024572
| 16> C            -3.278077         2.335393         0.138283
| 17> C            -4.173136         1.246079        -0.476965
| 18> C             1.840075        -0.820883        -0.342863
| 19> C             3.272021         1.005431         0.149566
| 20> C            -3.736198        -0.131767        -0.041050
| 21> C             4.442559         0.070772         0.278803
| 22> C             1.416834        -1.586878         0.732121
| 23> C             2.007835        -1.371683        -1.604793
| 24> C             5.754178         0.753661         0.654652
| 25> C            -3.119254        -1.001658        -0.935034
| 26> C            -3.879823        -0.535785         1.284757
| 27> C             1.152037        -2.936080         0.534257
| 28> C             1.746498        -2.721737        -1.791106
| 29> C             1.316488        -3.501605        -0.723211
| 30> C            -2.634252        -2.235198        -0.515760
| 31> C            -3.401019        -1.767254         1.710314
| 32> C            -2.768041        -2.619494         0.811650
| 33> H             1.338305         2.508498        -0.538690
| 34> H            -0.415971         0.078266        -1.098659
| 35> H             0.395694         1.109314        -2.294484
| 36> H             0.972473         2.106248         1.845307
| 37> H            -0.054481         0.698684         1.481162
| 38> H            -1.022952         3.032260        -1.588361
| 39> H            -2.023482         1.637955        -2.002044
| 40> H            -1.486840         2.584735         1.994541
| 41> H            -0.699855         3.598652         0.775958
| 42> H            -3.516269         2.424105         1.201069
| 43> H            -3.505303         3.309774        -0.323944
| 44> H            -4.157290         1.307228        -1.568039
| 45> H            -5.205814         1.440168        -0.173890
| 46> H             4.536281        -0.465451        -0.668749
| 47> H             4.168370        -0.687936         1.016326
| 48> H             1.289969        -1.137877         1.709810
| 49> H             2.326773        -0.748386        -2.432843
| 50> H             6.541736         0.004105         0.726126
| 51> H             5.698583         1.245868         1.630308
| 52> H             6.076588         1.475206        -0.102464
| 53> H            -3.018111        -0.712353        -1.977129
| 54> H            -4.373944         0.121101         1.994694
| 55> H             0.812266        -3.541783         1.365678
| 56> H             1.872561        -3.162761        -2.772826
| 57> H             1.107695        -4.554361        -0.873668
| 58> H            -2.160198        -2.900129        -1.230386
| 59> H            -3.531238        -2.068231         2.744347
| 60> H            -2.403497        -3.586513         1.141222
| 61> H             4.353270         2.497769         0.554168
| 62> *
| 63> 
| 64> 
| 65>                          ****END OF INPUT****
================================================================================

                       ****************************
                       * Single Point Calculation *
                       ****************************

---------------------------------
CARTESIAN COORDINATES (ANGSTROEM)
---------------------------------
  O      3.429640    2.292988    0.350179
  N     -1.874803    1.980031    0.045993
  N      2.080014    0.597489   -0.155206
  C      0.917000    1.546948   -0.242556
  C     -0.073705    1.093192   -1.306719
  C      0.261035    1.683618    1.129777
  C     -1.297460    2.006715   -1.277894
  C     -0.987086    2.559570    1.024572
  C     -3.278077    2.335393    0.138283
  C     -4.173136    1.246079   -0.476965
  C      1.840075   -0.820883   -0.342863
  C      3.272021    1.005431    0.149566
  C     -3.736198   -0.131767   -0.041050
  C      4.442559    0.070772    0.278803
  C      1.416834   -1.586878    0.732121
  C      2.007835   -1.371683   -1.604793
  C      5.754178    0.753661    0.654652
  C     -3.119254   -1.001658   -0.935034
  C     -3.879823   -0.535785    1.284757
  C      1.152037   -2.936080    0.534257
  C      1.746498   -2.721737   -1.791106
  C      1.316488   -3.501605   -0.723211
  C     -2.634252   -2.235198   -0.515760
  C     -3.401019   -1.767254    1.710314
  C     -2.768041   -2.619494    0.811650
  H      1.338305    2.508498   -0.538690
  H     -0.415971    0.078266   -1.098659
  H      0.395694    1.109314   -2.294484
  H      0.972473    2.106248    1.845307
  H     -0.054481    0.698684    1.481162
  H     -1.022952    3.032260   -1.588361
  H     -2.023482    1.637955   -2.002044
  H     -1.486840    2.584735    1.994541
  H     -0.699855    3.598652    0.775958
  H     -3.516269    2.424105    1.201069
  H     -3.505303    3.309774   -0.323944
  H     -4.157290    1.307228   -1.568039
  H     -5.205814    1.440168   -0.173890
  H      4.536281   -0.465451   -0.668749
  H      4.168370   -0.687936    1.016326
  H      1.289969   -1.137877    1.709810
  H      2.326773   -0.748386   -2.432843
  H      6.541736    0.004105    0.726126
  H      5.698583    1.245868    1.630308
  H      6.076588    1.475206   -0.102464
  H     -3.018111   -0.712353   -1.977129
  H     -4.373944    0.121101    1.994694
  H      0.812266   -3.541783    1.365678
  H      1.872561   -3.162761   -2.772826
  H      1.107695   -4.554361   -0.873668
  H     -2.160198   -2.900129   -1.230386
  H     -3.531238   -2.068231    2.744347
  H     -2.403497   -3.586513    1.141222
  H      4.353270    2.497769    0.554168

----------------------------
CARTESIAN COORDINATES (A.U.)
----------------------------
  NO LB      ZA    FRAG     MASS         X           Y           Z
   0 O     8.0000    0    15.999    6.481080    4.333119    0.661742
   1 N     7.0000    0    14.007   -3.542864    3.741716    0.086914
   2 N     7.0000    0    14.007    3.930657    1.129091   -0.293297
   3 C     6.0000    0    12.011    1.732879    2.923308   -0.458364
   4 C     6.0000    0    12.011   -0.139282    2.065833   -2.469341
   5 C     6.0000    0    12.011    0.493285    3.181577    2.134969
   6 C     6.0000    0    12.011   -2.451844    3.792142   -2.414870
   7 C     6.0000    0    12.011   -1.865322    4.836886    1.936160
   8 C     6.0000    0    12.011   -6.194668    4.413253    0.261317
   9 C     6.0000    0    12.011   -7.886084    2.354748   -0.901333
  10 C     6.0000    0    12.011    3.477238   -1.551244   -0.647917
  11 C     6.0000    0    12.011    6.183224    1.899989    0.282639
  12 C     6.0000    0    12.011   -7.060391   -0.249004   -0.077573
  13 C     6.0000    0    12.011    8.395220    0.133740    0.526861
  14 C     6.0000    0    12.011    2.677428   -2.998765    1.383508
  15 C     6.0000    0    12.011    3.794258   -2.592105   -3.032619
  16 C     6.0000    0    12.011   10.873821    1.424213    1.237113
  17 C     6.0000    0    12.011   -5.894536   -1.892859   -1.766958
  18 C     6.0000    0    12.011   -7.331803   -1.012487    2.427839
  19 C     6.0000    0    12.011    2.177034   -5.548387    1.009599
  20 C     6.0000    0    12.011    3.300403   -5.143338   -3.384700
  21 C     6.0000    0    12.011    2.487802   -6.617074   -1.366671
  22 C     6.0000    0    12.011   -4.978015   -4.223912   -0.974645
  23 C     6.0000    0    12.011   -6.426994   -3.339626    3.232025
  24 C     6.0000    0    12.011   -5.230839   -4.950126    1.533796
  25 H     1.0000    0     1.008    2.529030    4.740374   -1.017977
  26 H     1.0000    0     1.008   -0.786071    0.147901   -2.076165
  27 H     1.0000    0     1.008    0.747753    2.096300   -4.335946
  28 H     1.0000    0     1.008    1.837708    3.980232    3.487125
  29 H     1.0000    0     1.008   -0.102954    1.320321    2.798991
  30 H     1.0000    0     1.008   -1.933099    5.730141   -3.001567
  31 H     1.0000    0     1.008   -3.823827    3.095286   -3.783315
  32 H     1.0000    0     1.008   -2.809720    4.884441    3.769136
  33 H     1.0000    0     1.008   -1.322534    6.800467    1.466348
  34 H     1.0000    0     1.008   -6.644785    4.580895    2.269691
  35 H     1.0000    0     1.008   -6.624063    6.254566   -0.612165
  36 H     1.0000    0     1.008   -7.856140    2.470303   -2.963164
  37 H     1.0000    0     1.008   -9.837563    2.721523   -0.328604
  38 H     1.0000    0     1.008    8.572329   -0.879575   -1.263752
  39 H     1.0000    0     1.008    7.877078   -1.300011    1.920578
  40 H     1.0000    0     1.008    2.437688   -2.150276    3.231073
  41 H     1.0000    0     1.008    4.396964   -1.414245   -4.597407
  42 H     1.0000    0     1.008   12.362089    0.007757    1.372179
  43 H     1.0000    0     1.008   10.768761    2.354349    3.080836
  44 H     1.0000    0     1.008   11.483087    2.787735   -0.193629
  45 H     1.0000    0     1.008   -5.703403   -1.346152   -3.736232
  46 H     1.0000    0     1.008   -8.265556    0.228848    3.769425
  47 H     1.0000    0     1.008    1.534960   -6.693000    2.580757
  48 H     1.0000    0     1.008    3.538627   -5.976752   -5.239882
  49 H     1.0000    0     1.008    2.093240   -8.606495   -1.650993
  50 H     1.0000    0     1.008   -4.082183   -5.480450   -2.325093
  51 H     1.0000    0     1.008   -6.673073   -3.908390    5.186064
  52 H     1.0000    0     1.008   -4.541951   -6.777527    2.156597
  53 H     1.0000    0     1.008    8.226488    4.720099    1.047226

--------------------------------
INTERNAL COORDINATES (ANGSTROEM)
--------------------------------
 O      0   0   0     0.000000000000     0.00000000     0.00000000
 N      1   0   0     5.322366649029     0.00000000     0.00000000
 N      1   2   0     2.225223853257    48.52808354     0.00000000
 C      3   1   2     1.503896266162    90.06801396    10.74584105
 C      4   3   1     1.523100060774   110.82497226   146.53952271
 C      4   3   1     1.527176032098   109.66222506   270.73999959
 C      2   1   3     1.444546213963    69.69408482   284.96734197
 C      2   1   3     1.442748690469    47.49860727   134.30863634
 C      2   1   3     1.450509398184   161.10885706   173.30220376
 C      9   2   1     1.538267111259   111.34463067   174.21807493
 C      3   1   2     1.450711895503   151.00380853   195.78292535
 C      3   1   2     1.296218860917    31.68502758   192.03645335
 C     10   9   2     1.509766969696   111.24710682    44.69474987
 C     12   3   1     1.503478918340   122.71921493   179.84719930
 C     11   3   1     1.386171664824   119.37101915    90.15211405
 C     11   3   1     1.387080164410   119.07285757   268.53639503
 C     14  12   3     1.525760223064   114.34419683   180.42783952
 C     13  10   9     1.391595359030   120.88407095   251.36205600
 C     13  10   9     1.393421288124   120.63060232    68.04107595
 C     15  11   3     1.389105341761   118.97736902   178.14161245
 C     16  11   3     1.387679849408   119.05818079   181.56940034
 C     20  15  11     1.388556238706   120.13192077     0.24844562
 C     18  13  10     1.390193712646   121.03642941   175.59972162
 C     19  13  10     1.388116684082   120.88848021   184.23350449
 C     23  18  13     1.388380430659   120.02215196     0.35091363
 H      4   3   1     1.090766543070   105.87942232    28.58356008
 H      5   4   3     1.091104836316   110.36046465    56.82958584
 H      5   4   3     1.093743587551   110.33073701   296.68872802
 H      6   4   3     1.093957643441   110.05937067    62.20949130
 H      6   4   3     1.092298836783   109.41765997   302.44271228
 H      7   2   1     1.106113442273   111.93487701   280.34201238
 H      7   2   1     1.089717901378   109.66332585   161.73259539
 H      8   2   1     1.091433552124   109.28789674   205.63900065
 H      8   2   1     1.106346225682   112.61849329    86.52125563
 H      9   2   1     1.092757671949   107.01635723   292.80542361
 H      9   2   1     1.102136011464   112.91490283    50.19060762
 H     10   9   2     1.092901079418   110.56288840   282.69731575
 H     10   9   2     1.093594461960   108.23568331   166.66021220
 H     14  12   3     1.092782554636   107.29460873    56.77674913
 H     14  12   3     1.093049684376   107.11024027   303.98877395
 H     15  11   3     1.083315469726   120.43852497   358.45663558
 H     16  11   3     1.084383419531   120.13516320     0.80191589
 H     17  14  12     1.089582641738   109.24577971   179.96553630
 H     17  14  12     1.094195213483   112.16683457    61.84808233
 H     17  14  12     1.094440511212   112.20422704   297.97960593
 H     18  13  10     1.086227084223   119.41337967   355.42790386
 H     19  13  10     1.086123990899   119.56814251     4.29740793
 H     20  15  11     1.083319590837   119.57249525   180.54218952
 H     21  16  11     1.083590423982   119.71574417   179.90609708
 H     22  20  15     1.083755978638   119.90290549   180.07269853
 H     23  18  13     1.085150104618   119.83469571   179.74369092
 H     24  19  13     1.084789559121   119.79929225   180.61445867
 H     25  23  18     1.084728434900   120.32204266   179.16446243
 H      1   2   3     0.967801191868   167.32580600   210.39061431

---------------------------
INTERNAL COORDINATES (A.U.)
---------------------------
 O      0   0   0     0.000000000000     0.00000000     0.00000000
 N      1   0   0    10.057815350981     0.00000000     0.00000000
 N      1   2   0     4.205063669324    48.52808354     0.00000000
 C      3   1   2     2.841952076874    90.06801396    10.74584105
 C      4   3   1     2.878241989422   110.82497226   146.53952271
 C      4   3   1     2.885944458953   109.66222506   270.73999959
 C      2   1   3     2.729796732182    69.69408482   284.96734197
 C      2   1   3     2.726399905061    47.49860727   134.30863634
 C      2   1   3     2.741065517247   161.10885706   173.30220376
 C      9   2   1     2.906903561098   111.34463067   174.21807493
 C      3   1   2     2.741448181723   151.00380853   195.78292535
 C      3   1   2     2.449498656757    31.68502758   192.03645335
 C     10   9   2     2.853046098766   111.24710682    44.69474987
 C     12   3   1     2.841163403787   122.71921493   179.84719930
 C     11   3   1     2.619484821120   119.37101915    90.15211405
 C     11   3   1     2.621201636530   119.07285757   268.53639503
 C     14  12   3     2.883268967621   114.34419683   180.42783952
 C     13  10   9     2.629734117802   120.88407095   251.36205600
 C     13  10   9     2.633184623731   120.63060232    68.04107595
 C     15  11   3     2.625028667095   118.97736902   178.14161245
 C     16  11   3     2.622334876943   119.05818079   181.56940034
 C     20  15  11     2.623991012703   120.13192077     0.24844562
 C     18  13  10     2.627085390000   121.03642941   175.59972162
 C     19  13  10     2.623160374841   120.88848021   184.23350449
 C     23  18  13     2.623658783641   120.02215196     0.35091363
 H      4   3   1     2.061250042446   105.87942232    28.58356008
 H      5   4   3     2.061889324034   110.36046465    56.82958584
 H      5   4   3     2.066875841205   110.33073701   296.68872802
 H      6   4   3     2.067280348214   110.05937067    62.20949130
 H      6   4   3     2.064145657920   109.41765997   302.44271228
 H      7   2   1     2.090251478946   111.93487701   280.34201238
 H      7   2   1     2.059268396836   109.66332585   161.73259539
 H      8   2   1     2.062510506887   109.28789674   205.63900065
 H      8   2   1     2.090691375837   112.61849329    86.52125563
 H      9   2   1     2.065012730725   107.01635723   292.80542361
 H      9   2   1     2.082735223999   112.91490283    50.19060762
 H     10   9   2     2.065283731567   110.56288840   282.69731575
 H     10   9   2     2.066594034678   108.23568331   166.66021220
 H     14  12   3     2.065059752189   107.29460873    56.77674913
 H     14  12   3     2.065564554239   107.11024027   303.98877395
 H     15  11   3     2.047169554422   120.43852497   358.45663558
 H     16  11   3     2.049187687078   120.13516320     0.80191589
 H     17  14  12     2.059012793159   109.24577971   179.96553630
 H     17  14  12     2.067729290531   112.16683457    61.84808233
 H     17  14  12     2.068192836059   112.20422704   297.97960593
 H     18  13  10     2.052671708429   119.41337967   355.42790386
 H     19  13  10     2.052476890280   119.56814251     4.29740793
 H     20  15  11     2.047177342193   119.57249525   180.54218952
 H     21  16  11     2.047689142665   119.71574417   179.90609708
 H     22  20  15     2.048001995626   119.90290549   180.07269853
 H     23  18  13     2.050636511924   119.83469571   179.74369092
 H     24  19  13     2.049955179677   119.79929225   180.61445867
 H     25  23  18     2.049839671638   120.32204266   179.16446243
 H      1   2   3     1.828879204714   167.32580600   210.39061431

---------------------
BASIS SET INFORMATION
---------------------
There are 4 groups of distinct atoms

 Group   1 Type O   : 11s6p2d1f contracted to 5s3p2d1f pattern {62111/411/11/1}
 Group   2 Type N   : 11s6p2d1f contracted to 5s3p2d1f pattern {62111/411/11/1}
 Group   3 Type C   : 11s6p2d1f contracted to 5s3p2d1f pattern {62111/411/11/1}
 Group   4 Type H   : 5s1p contracted to 3s1p pattern {311/1}

Atom   0O    basis set group =>   1
Atom   1N    basis set group =>   2
Atom   2N    basis set group =>   2
Atom   3C    basis set group =>   3
Atom   4C    basis set group =>   3
Atom   5C    basis set group =>   3
Atom   6C    basis set group =>   3
Atom   7C    basis set group =>   3
Atom   8C    basis set group =>   3
Atom   9C    basis set group =>   3
Atom  10C    basis set group =>   3
Atom  11C    basis set group =>   3
Atom  12C    basis set group =>   3
Atom  13C    basis set group =>   3
Atom  14C    basis set group =>   3
Atom  15C    basis set group =>   3
Atom  16C    basis set group =>   3
Atom  17C    basis set group =>   3
Atom  18C    basis set group =>   3
Atom  19C    basis set group =>   3
Atom  20C    basis set group =>   3
Atom  21C    basis set group =>   3
Atom  22C    basis set group =>   3
Atom  23C    basis set group =>   3
Atom  24C    basis set group =>   3
Atom  25H    basis set group =>   4
Atom  26H    basis set group =>   4
Atom  27H    basis set group =>   4
Atom  28H    basis set group =>   4
Atom  29H    basis set group =>   4
Atom  30H    basis set group =>   4
Atom  31H    basis set group =>   4
Atom  32H    basis set group =>   4
Atom  33H    basis set group =>   4
Atom  34H    basis set group =>   4
Atom  35H    basis set group =>   4
Atom  36H    basis set group =>   4
Atom  37H    basis set group =>   4
Atom  38H    basis set group =>   4
Atom  39H    basis set group =>   4
Atom  40H    basis set group =>   4
Atom  41H    basis set group =>   4
Atom  42H    basis set group =>   4
Atom  43H    basis set group =>   4
Atom  44H    basis set group =>   4
Atom  45H    basis set group =>   4
Atom  46H    basis set group =>   4
Atom  47H    basis set group =>   4
Atom  48H    basis set group =>   4
Atom  49H    basis set group =>   4
Atom  50H    basis set group =>   4
Atom  51H    basis set group =>   4
Atom  52H    basis set group =>   4
Atom  53H    basis set group =>   4
---------------------------------
AUXILIARY/C BASIS SET INFORMATION
---------------------------------
There are 4 groups of distinct atoms

 Group   1 Type O   : 8s6p5d3f1g contracted to 8s6p4d3f1g pattern {11111111/111111/2111/111/1}
 Group   2 Type N   : 8s6p5d3f1g contracted to 8s6p4d3f1g pattern {11111111/111111/2111/111/1}
 Group   3 Type C   : 8s6p5d3f1g contracted to 8s6p4d3f1g pattern {11111111/111111/2111/111/1}
 Group   4 Type H   : 4s3p2d contracted to 4s2p1d pattern {1111/21/2}

Atom   0O    basis set group =>   1
Atom   1N    basis set group =>   2
Atom   2N    basis set group =>   2
Atom   3C    basis set group =>   3
Atom   4C    basis set group =>   3
Atom   5C    basis set group =>   3
Atom   6C    basis set group =>   3
Atom   7C    basis set group =>   3
Atom   8C    basis set group =>   3
Atom   9C    basis set group =>   3
Atom  10C    basis set group =>   3
Atom  11C    basis set group =>   3
Atom  12C    basis set group =>   3
Atom  13C    basis set group =>   3
Atom  14C    basis set group =>   3
Atom  15C    basis set group =>   3
Atom  16C    basis set group =>   3
Atom  17C    basis set group =>   3
Atom  18C    basis set group =>   3
Atom  19C    basis set group =>   3
Atom  20C    basis set group =>   3
Atom  21C    basis set group =>   3
Atom  22C    basis set group =>   3
Atom  23C    basis set group =>   3
Atom  24C    basis set group =>   3
Atom  25H    basis set group =>   4
Atom  26H    basis set group =>   4
Atom  27H    basis set group =>   4
Atom  28H    basis set group =>   4
Atom  29H    basis set group =>   4
Atom  30H    basis set group =>   4
Atom  31H    basis set group =>   4
Atom  32H    basis set group =>   4
Atom  33H    basis set group =>   4
Atom  34H    basis set group =>   4
Atom  35H    basis set group =>   4
Atom  36H    basis set group =>   4
Atom  37H    basis set group =>   4
Atom  38H    basis set group =>   4
Atom  39H    basis set group =>   4
Atom  40H    basis set group =>   4
Atom  41H    basis set group =>   4
Atom  42H    basis set group =>   4
Atom  43H    basis set group =>   4
Atom  44H    basis set group =>   4
Atom  45H    basis set group =>   4
Atom  46H    basis set group =>   4
Atom  47H    basis set group =>   4
Atom  48H    basis set group =>   4
Atom  49H    basis set group =>   4
Atom  50H    basis set group =>   4
Atom  51H    basis set group =>   4
Atom  52H    basis set group =>   4
Atom  53H    basis set group =>   4


           ************************************************************
           *        Program running with 8 parallel MPI-processes     *
           *              working on a common directory               *
           ************************************************************
------------------------------------------------------------------------------
                           ORCA GTO INTEGRAL CALCULATION
------------------------------------------------------------------------------
------------------------------------------------------------------------------
                   ___                                                        
                  /   \      - P O W E R E D   B Y -                         
                 /     \                                                     
                 |  |  |   _    _      __       _____    __    __             
                 |  |  |  | |  | |    /  \     |  _  \  |  |  /  |          
                  \  \/   | |  | |   /    \    | | | |  |  | /  /          
                 / \  \   | |__| |  /  /\  \   | |_| |  |  |/  /          
                |  |  |   |  __  | /  /__\  \  |    /   |      \           
                |  |  |   | |  | | |   __   |  |    \   |  |\   \          
                \     /   | |  | | |  |  |  |  | |\  \  |  | \   \       
                 \___/    |_|  |_| |__|  |__|  |_| \__\ |__|  \__/        
                                                                              
                      - O R C A' S   B I G   F R I E N D -                    
                                      &                                       
                       - I N T E G R A L  F E E D E R -                       
                                                                              
 v1 FN, 2020, v2 2021                                                         
------------------------------------------------------------------------------


Reading SHARK input file Fentanyl_OProt_1.SHARKINP.tmp ... ok
----------------------
SHARK INTEGRAL PACKAGE
----------------------

Number of atoms                             ...     54
Number of basis functions                   ...    949
Number of shells                            ...    391
Maximum angular momentum                    ...      3
Integral batch strategy                     ... SHARK/LIBINT Hybrid
RI-J (if used) integral strategy            ... SPLIT-RIJ (Revised 2003 algorithm where possible)
Printlevel                                  ...      1
Contraction scheme used                     ... SEGMENTED contraction
Coulomb Range Separation                    ... NOT USED
Exchange Range Separation                   ... NOT USED
Finite Nucleus Model                        ... NOT USED
Auxiliary Coulomb fitting basis             ... NOT available
Auxiliary J/K fitting basis                 ... NOT available
Auxiliary Correlation fitting basis         ... AVAILABLE
   # of basis functions in Aux-C            ...   2335
   # of shells in Aux-C                     ...    753
   Maximum angular momentum in Aux-C        ...      4
Auxiliary 'external' fitting basis          ... NOT available
Integral threshold                          ...     1.000000e-12
Primitive cut-off                           ...     1.000000e-14
Primitive pair pre-selection threshold      ...     1.000000e-14

Calculating pre-screening integrals         ... done (  0.1 sec) Dimension = 391
Organizing shell pair data                  ... done (  0.7 sec)
Shell pair information
Total number of shell pairs                 ...     76636
Shell pairs after pre-screening             ...     58208
Total number of primitive shell pairs       ...    228112
Primitive shell pairs kept                  ...    116096
          la=0 lb=0:  16720 shell pairs
          la=1 lb=0:  17167 shell pairs
          la=1 lb=1:   4456 shell pairs
          la=2 lb=0:   7955 shell pairs
          la=2 lb=1:   4095 shell pairs
          la=2 lb=2:    976 shell pairs
          la=3 lb=0:   3698 shell pairs
          la=3 lb=1:   1991 shell pairs
          la=3 lb=2:    922 shell pairs
          la=3 lb=3:    228 shell pairs

Calculating one electron integrals          ... done (  0.1 sec)
Calculating RI/C V-Matrix + Cholesky decomp.... done (  0.3 sec)
Calculating Nuclear repulsion               ... done (  0.0 sec) ENN=   2296.523605343969 Eh

SHARK setup successfully completed in   1.9 seconds

Maximum memory used throughout the entire GTOINT-calculation: 84.2 MB
[1704049732.469476] [gra1003:14384:0]          mpool.c:42   UCX  WARN  object 0xa5d5f40 was not returned to mpool ucp_requests
[1704049732.469507] [gra1003:14384:0]          mpool.c:42   UCX  WARN  object 0xa5d6100 was not returned to mpool ucp_requests
[1704049732.469515] [gra1003:14384:0]          mpool.c:42   UCX  WARN  object 0xa5d62c0 was not returned to mpool ucp_requests
[1704049732.469521] [gra1003:14384:0]          mpool.c:42   UCX  WARN  object 0xa5d6480 was not returned to mpool ucp_requests
[1704049732.469527] [gra1003:14384:0]          mpool.c:42   UCX  WARN  object 0xa5d6640 was not returned to mpool ucp_requests
[1704049732.469533] [gra1003:14384:0]          mpool.c:42   UCX  WARN  object 0xa5d6800 was not returned to mpool ucp_requests
[1704049732.469539] [gra1003:14384:0]          mpool.c:42   UCX  WARN  object 0xa5d69c0 was not returned to mpool ucp_requests
[1704049732.469549] [gra1003:14384:0]          mpool.c:42   UCX  WARN  object 0xa5d6b80 was not returned to mpool ucp_requests
[1704049732.469555] [gra1003:14384:0]          mpool.c:42   UCX  WARN  object 0xa5d6d40 was not returned to mpool ucp_requests
[1704049732.469560] [gra1003:14384:0]          mpool.c:42   UCX  WARN  object 0xa5d6f00 was not returned to mpool ucp_requests
[1704049732.469570] [gra1003:14384:0]          mpool.c:42   UCX  WARN  object 0xa5d70c0 was not returned to mpool ucp_requests
[1704049732.469580] [gra1003:14384:0]          mpool.c:42   UCX  WARN  object 0xa5d7280 was not returned to mpool ucp_requests
[1704049732.469586] [gra1003:14384:0]          mpool.c:42   UCX  WARN  object 0xa5d7440 was not returned to mpool ucp_requests
[1704049732.469592] [gra1003:14384:0]          mpool.c:42   UCX  WARN  object 0xa5d7600 was not returned to mpool ucp_requests
[1704049732.469597] [gra1003:14384:0]          mpool.c:42   UCX  WARN  object 0xa5d77c0 was not returned to mpool ucp_requests
[1704049732.469603] [gra1003:14384:0]          mpool.c:42   UCX  WARN  object 0xa5d7980 was not returned to mpool ucp_requests
[1704049732.469609] [gra1003:14384:0]          mpool.c:42   UCX  WARN  object 0xa5d7b40 was not returned to mpool ucp_requests
[1704049732.469614] [gra1003:14384:0]          mpool.c:42   UCX  WARN  object 0xa5d7d00 was not returned to mpool ucp_requests
[1704049732.469714] [gra1003:14383:0]          mpool.c:42   UCX  WARN  object 0xb809a00 was not returned to mpool ucp_requests
[1704049732.469736] [gra1003:14383:0]          mpool.c:42   UCX  WARN  object 0xb809bc0 was not returned to mpool ucp_requests
[1704049732.469743] [gra1003:14383:0]          mpool.c:42   UCX  WARN  object 0xb809d80 was not returned to mpool ucp_requests
[1704049732.469750] [gra1003:14383:0]          mpool.c:42   UCX  WARN  object 0xb809f40 was not returned to mpool ucp_requests
[1704049732.469756] [gra1003:14383:0]          mpool.c:42   UCX  WARN  object 0xb80a100 was not returned to mpool ucp_requests
[1704049732.469762] [gra1003:14383:0]          mpool.c:42   UCX  WARN  object 0xb80a2c0 was not returned to mpool ucp_requests
[1704049732.469773] [gra1003:14383:0]          mpool.c:42   UCX  WARN  object 0xb80a480 was not returned to mpool ucp_requests
[1704049732.469779] [gra1003:14383:0]          mpool.c:42   UCX  WARN  object 0xb80a640 was not returned to mpool ucp_requests
[1704049732.469785] [gra1003:14383:0]          mpool.c:42   UCX  WARN  object 0xb80a800 was not returned to mpool ucp_requests
[1704049732.469791] [gra1003:14383:0]          mpool.c:42   UCX  WARN  object 0xb80a9c0 was not returned to mpool ucp_requests
[1704049732.469796] [gra1003:14383:0]          mpool.c:42   UCX  WARN  object 0xb80ab80 was not returned to mpool ucp_requests
[1704049732.469802] [gra1003:14383:0]          mpool.c:42   UCX  WARN  object 0xb80ad40 was not returned to mpool ucp_requests
[1704049732.469807] [gra1003:14383:0]          mpool.c:42   UCX  WARN  object 0xb80af00 was not returned to mpool ucp_requests
[1704049732.469813] [gra1003:14383:0]          mpool.c:42   UCX  WARN  object 0xb80b0c0 was not returned to mpool ucp_requests
[1704049732.469818] [gra1003:14383:0]          mpool.c:42   UCX  WARN  object 0xb80b280 was not returned to mpool ucp_requests
[1704049732.469824] [gra1003:14383:0]          mpool.c:42   UCX  WARN  object 0xb80b440 was not returned to mpool ucp_requests
[1704049732.469833] [gra1003:14383:0]          mpool.c:42   UCX  WARN  object 0xb80b600 was not returned to mpool ucp_requests
[1704049732.469839] [gra1003:14383:0]          mpool.c:42   UCX  WARN  object 0xb80b7c0 was not returned to mpool ucp_requests
[1704049732.469929] [gra1003:14382:0]          mpool.c:42   UCX  WARN  object 0xc0e4c00 was not returned to mpool ucp_requests
[1704049732.469952] [gra1003:14382:0]          mpool.c:42   UCX  WARN  object 0xc0e4dc0 was not returned to mpool ucp_requests
[1704049732.469965] [gra1003:14382:0]          mpool.c:42   UCX  WARN  object 0xc0e4f80 was not returned to mpool ucp_requests
[1704049732.469972] [gra1003:14382:0]          mpool.c:42   UCX  WARN  object 0xc0e5140 was not returned to mpool ucp_requests
[1704049732.469978] [gra1003:14382:0]          mpool.c:42   UCX  WARN  object 0xc0e5300 was not returned to mpool ucp_requests
[1704049732.469984] [gra1003:14382:0]          mpool.c:42   UCX  WARN  object 0xc0e54c0 was not returned to mpool ucp_requests
[1704049732.469991] [gra1003:14381:0]          mpool.c:42   UCX  WARN  object 0xa60d100 was not returned to mpool ucp_requests
[1704049732.470009] [gra1003:14381:0]          mpool.c:42   UCX  WARN  object 0xa60d2c0 was not returned to mpool ucp_requests
[1704049732.470021] [gra1003:14381:0]          mpool.c:42   UCX  WARN  object 0xa60d480 was not returned to mpool ucp_requests
[1704049732.470027] [gra1003:14381:0]          mpool.c:42   UCX  WARN  object 0xa60d640 was not returned to mpool ucp_requests
[1704049732.470035] [gra1003:14381:0]          mpool.c:42   UCX  WARN  object 0xa60d800 was not returned to mpool ucp_requests
[1704049732.470041] [gra1003:14381:0]          mpool.c:42   UCX  WARN  object 0xa60d9c0 was not returned to mpool ucp_requests
[1704049732.470046] [gra1003:14381:0]          mpool.c:42   UCX  WARN  object 0xa60db80 was not returned to mpool ucp_requests
[1704049732.469994] [gra1003:14382:0]          mpool.c:42   UCX  WARN  object 0xc0e5680 was not returned to mpool ucp_requests
[1704049732.470000] [gra1003:14382:0]          mpool.c:42   UCX  WARN  object 0xc0e5840 was not returned to mpool ucp_requests
[1704049732.470006] [gra1003:14382:0]          mpool.c:42   UCX  WARN  object 0xc0e5a00 was not returned to mpool ucp_requests
[1704049732.470017] [gra1003:14382:0]          mpool.c:42   UCX  WARN  object 0xc0e5bc0 was not returned to mpool ucp_requests
[1704049732.470022] [gra1003:14382:0]          mpool.c:42   UCX  WARN  object 0xc0e5d80 was not returned to mpool ucp_requests
[1704049732.470029] [gra1003:14382:0]          mpool.c:42   UCX  WARN  object 0xc0e5f40 was not returned to mpool ucp_requests
[1704049732.470037] [gra1003:14382:0]          mpool.c:42   UCX  WARN  object 0xc0e6100 was not returned to mpool ucp_requests
[1704049732.470043] [gra1003:14382:0]          mpool.c:42   UCX  WARN  object 0xc0e62c0 was not returned to mpool ucp_requests
[1704049732.470049] [gra1003:14382:0]          mpool.c:42   UCX  WARN  object 0xc0e6480 was not returned to mpool ucp_requests
[1704049732.470054] [gra1003:14382:0]          mpool.c:42   UCX  WARN  object 0xc0e6640 was not returned to mpool ucp_requests
[1704049732.470053] [gra1003:14381:0]          mpool.c:42   UCX  WARN  object 0xa60dd40 was not returned to mpool ucp_requests
[1704049732.470058] [gra1003:14381:0]          mpool.c:42   UCX  WARN  object 0xa60df00 was not returned to mpool ucp_requests
[1704049732.470064] [gra1003:14381:0]          mpool.c:42   UCX  WARN  object 0xa60e0c0 was not returned to mpool ucp_requests
[1704049732.470070] [gra1003:14381:0]          mpool.c:42   UCX  WARN  object 0xa60e280 was not returned to mpool ucp_requests
[1704049732.470076] [gra1003:14381:0]          mpool.c:42   UCX  WARN  object 0xa60e440 was not returned to mpool ucp_requests
[1704049732.470081] [gra1003:14381:0]          mpool.c:42   UCX  WARN  object 0xa60e600 was not returned to mpool ucp_requests
[1704049732.470087] [gra1003:14381:0]          mpool.c:42   UCX  WARN  object 0xa60e7c0 was not returned to mpool ucp_requests
[1704049732.470093] [gra1003:14381:0]          mpool.c:42   UCX  WARN  object 0xa60e980 was not returned to mpool ucp_requests
[1704049732.470061] [gra1003:14382:0]          mpool.c:42   UCX  WARN  object 0xc0e6800 was not returned to mpool ucp_requests
[1704049732.470068] [gra1003:14382:0]          mpool.c:42   UCX  WARN  object 0xc0e69c0 was not returned to mpool ucp_requests
[1704049732.470099] [gra1003:14381:0]          mpool.c:42   UCX  WARN  object 0xa60eb40 was not returned to mpool ucp_requests
[1704049732.470106] [gra1003:14381:0]          mpool.c:42   UCX  WARN  object 0xa60ed00 was not returned to mpool ucp_requests
[1704049732.470112] [gra1003:14381:0]          mpool.c:42   UCX  WARN  object 0xa60eec0 was not returned to mpool ucp_requests
[1704049732.470136] [gra1003:14379:0]          mpool.c:42   UCX  WARN  object 0xb736a40 was not returned to mpool ucp_requests
[1704049732.470155] [gra1003:14379:0]          mpool.c:42   UCX  WARN  object 0xb736c00 was not returned to mpool ucp_requests
[1704049732.470163] [gra1003:14379:0]          mpool.c:42   UCX  WARN  object 0xb736dc0 was not returned to mpool ucp_requests
[1704049732.470170] [gra1003:14379:0]          mpool.c:42   UCX  WARN  object 0xb736f80 was not returned to mpool ucp_requests
[1704049732.470177] [gra1003:14379:0]          mpool.c:42   UCX  WARN  object 0xb737140 was not returned to mpool ucp_requests
[1704049732.470192] [gra1003:14379:0]          mpool.c:42   UCX  WARN  object 0xb737300 was not returned to mpool ucp_requests
[1704049732.470198] [gra1003:14379:0]          mpool.c:42   UCX  WARN  object 0xb7374c0 was not returned to mpool ucp_requests
[1704049732.470205] [gra1003:14379:0]          mpool.c:42   UCX  WARN  object 0xb737680 was not returned to mpool ucp_requests
[1704049732.470212] [gra1003:14379:0]          mpool.c:42   UCX  WARN  object 0xb737840 was not returned to mpool ucp_requests
[1704049732.470219] [gra1003:14379:0]          mpool.c:42   UCX  WARN  object 0xb737a00 was not returned to mpool ucp_requests
[1704049732.470230] [gra1003:14379:0]          mpool.c:42   UCX  WARN  object 0xb737bc0 was not returned to mpool ucp_requests
[1704049732.470237] [gra1003:14379:0]          mpool.c:42   UCX  WARN  object 0xb737d80 was not returned to mpool ucp_requests
[1704049732.470243] [gra1003:14379:0]          mpool.c:42   UCX  WARN  object 0xb737f40 was not returned to mpool ucp_requests
[1704049732.470267] [gra1003:14380:0]          mpool.c:42   UCX  WARN  object 0xac90fc0 was not returned to mpool ucp_requests
[1704049732.470285] [gra1003:14380:0]          mpool.c:42   UCX  WARN  object 0xac91180 was not returned to mpool ucp_requests
[1704049732.470292] [gra1003:14380:0]          mpool.c:42   UCX  WARN  object 0xac91340 was not returned to mpool ucp_requests
[1704049732.470299] [gra1003:14380:0]          mpool.c:42   UCX  WARN  object 0xac91500 was not returned to mpool ucp_requests
[1704049732.470313] [gra1003:14380:0]          mpool.c:42   UCX  WARN  object 0xac916c0 was not returned to mpool ucp_requests
[1704049732.470319] [gra1003:14380:0]          mpool.c:42   UCX  WARN  object 0xac91880 was not returned to mpool ucp_requests
[1704049732.470325] [gra1003:14380:0]          mpool.c:42   UCX  WARN  object 0xac91a40 was not returned to mpool ucp_requests
[1704049732.470336] [gra1003:14380:0]          mpool.c:42   UCX  WARN  object 0xac91c00 was not returned to mpool ucp_requests
[1704049732.470339] [gra1003:14385:0]          mpool.c:42   UCX  WARN  object 0xbd449c0 was not returned to mpool ucp_requests
[1704049732.470358] [gra1003:14385:0]          mpool.c:42   UCX  WARN  object 0xbd44b80 was not returned to mpool ucp_requests
[1704049732.470365] [gra1003:14385:0]          mpool.c:42   UCX  WARN  object 0xbd44d40 was not returned to mpool ucp_requests
[1704049732.470384] [gra1003:14385:0]          mpool.c:42   UCX  WARN  object 0xbd44f00 was not returned to mpool ucp_requests
[1704049732.470342] [gra1003:14380:0]          mpool.c:42   UCX  WARN  object 0xac91dc0 was not returned to mpool ucp_requests
[1704049732.470348] [gra1003:14380:0]          mpool.c:42   UCX  WARN  object 0xac91f80 was not returned to mpool ucp_requests
[1704049732.470354] [gra1003:14380:0]          mpool.c:42   UCX  WARN  object 0xac92140 was not returned to mpool ucp_requests
[1704049732.470360] [gra1003:14380:0]          mpool.c:42   UCX  WARN  object 0xac92300 was not returned to mpool ucp_requests
[1704049732.470366] [gra1003:14380:0]          mpool.c:42   UCX  WARN  object 0xac924c0 was not returned to mpool ucp_requests
[1704049732.470371] [gra1003:14380:0]          mpool.c:42   UCX  WARN  object 0xac92680 was not returned to mpool ucp_requests
[1704049732.470377] [gra1003:14380:0]          mpool.c:42   UCX  WARN  object 0xac92840 was not returned to mpool ucp_requests
[1704049732.470383] [gra1003:14380:0]          mpool.c:42   UCX  WARN  object 0xac92a00 was not returned to mpool ucp_requests
[1704049732.470388] [gra1003:14380:0]          mpool.c:42   UCX  WARN  object 0xac92bc0 was not returned to mpool ucp_requests
[1704049732.470394] [gra1003:14380:0]          mpool.c:42   UCX  WARN  object 0xac92d80 was not returned to mpool ucp_requests
[1704049732.470402] [gra1003:14385:0]          mpool.c:42   UCX  WARN  object 0xbd450c0 was not returned to mpool ucp_requests
[1704049732.470409] [gra1003:14385:0]          mpool.c:42   UCX  WARN  object 0xbd45280 was not returned to mpool ucp_requests
[1704049732.470420] [gra1003:14385:0]          mpool.c:42   UCX  WARN  object 0xbd45440 was not returned to mpool ucp_requests
[1704049732.470426] [gra1003:14385:0]          mpool.c:42   UCX  WARN  object 0xbd45600 was not returned to mpool ucp_requests
[1704049732.470432] [gra1003:14385:0]          mpool.c:42   UCX  WARN  object 0xbd457c0 was not returned to mpool ucp_requests
[1704049732.470438] [gra1003:14385:0]          mpool.c:42   UCX  WARN  object 0xbd45980 was not returned to mpool ucp_requests
[1704049732.470444] [gra1003:14385:0]          mpool.c:42   UCX  WARN  object 0xbd45b40 was not returned to mpool ucp_requests
[1704049732.470450] [gra1003:14385:0]          mpool.c:42   UCX  WARN  object 0xbd45d00 was not returned to mpool ucp_requests
[1704049732.470456] [gra1003:14385:0]          mpool.c:42   UCX  WARN  object 0xbd45ec0 was not returned to mpool ucp_requests
[1704049732.470466] [gra1003:14385:0]          mpool.c:42   UCX  WARN  object 0xbd46080 was not returned to mpool ucp_requests
[1704049732.470475] [gra1003:14385:0]          mpool.c:42   UCX  WARN  object 0xbd46240 was not returned to mpool ucp_requests
[1704049732.470482] [gra1003:14385:0]          mpool.c:42   UCX  WARN  object 0xbd46400 was not returned to mpool ucp_requests
[1704049732.470487] [gra1003:14385:0]          mpool.c:42   UCX  WARN  object 0xbd465c0 was not returned to mpool ucp_requests
[1704049732.470493] [gra1003:14385:0]          mpool.c:42   UCX  WARN  object 0xbd46780 was not returned to mpool ucp_requests


           ************************************************************
           *        Program running with 8 parallel MPI-processes     *
           *              working on a common directory               *
           ************************************************************
-------------------------------------------------------------------------------
                                 ORCA SCF
-------------------------------------------------------------------------------

------------
SCF SETTINGS
------------
Hamiltonian:
 Ab initio Hamiltonian  Method          .... Hartree-Fock(GTOs)


General Settings:
 Integral files         IntName         .... Fentanyl_OProt_1
 Hartree-Fock type      HFTyp           .... RHF
 Total Charge           Charge          ....    1
 Multiplicity           Mult            ....    1
 Number of Electrons    NEL             ....  182
 Basis Dimension        Dim             ....  949
 Nuclear Repulsion      ENuc            ....   2296.5236053440 Eh

Convergence Acceleration:
 DIIS                   CNVDIIS         .... on
   Start iteration      DIISMaxIt       ....    12
   Startup error        DIISStart       ....  0.200000
   # of expansion vecs  DIISMaxEq       ....     5
   Bias factor          DIISBfac        ....   1.050
   Max. coefficient     DIISMaxC        ....  10.000
 Trust-Rad. Augm. Hess. CNVTRAH         .... auto
   Auto Start mean grad. ratio tolernc. ....  1.125000
   Auto Start start iteration           ....    20
   Auto Start num. interpolation iter.  ....    10
   Max. Number of Micro iterations      ....    16
   Max. Number of Macro iterations      .... Maxiter - #DIIS iter
   Number of Davidson start vectors     ....     2
   Converg. threshold I  (grad. norm)   ....   2.000e-06
   Converg. threshold II (energy diff.) ....   1.000e-09
   Grad. Scal. Fac. for Micro threshold ....   0.100
   Minimum threshold for Micro iter.    ....   0.010
   NR start threshold (gradient norm)   ....   0.001
   Initial trust radius                 ....   0.400
   Minimum AH scaling param. (alpha)    ....   1.000
   Maximum AH scaling param. (alpha)    .... 1000.000
   Orbital update algorithm             .... Taylor
   White noise on init. David. guess    .... on
   Maximum white noise                  ....   0.010
   Quad. conv. algorithm                .... NR
 SOSCF                  CNVSOSCF        .... on
   Start iteration      SOSCFMaxIt      ....   150
   Startup grad/error   SOSCFStart      ....  0.003300
 Level Shifting         CNVShift        .... on
   Level shift para.    LevelShift      ....    0.2500
   Turn off err/grad.   ShiftErr        ....    0.0010
 Zerner damping         CNVZerner       .... off
 Static damping         CNVDamp         .... on
   Fraction old density DampFac         ....    0.7000
   Max. Damping (<1)    DampMax         ....    0.9800
   Min. Damping (>=0)   DampMin         ....    0.0000
   Turn off err/grad.   DampErr         ....    0.1000
 Fernandez-Rico         CNVRico         .... off

SCF Procedure:
 Maximum # iterations   MaxIter         ....   125
 SCF integral mode      SCFMode         .... Direct
   Integral package                     .... SHARK and LIBINT hybrid scheme
 Reset frequency        DirectResetFreq ....    20
 Integral Threshold     Thresh          ....  1.000e-12 Eh
 Primitive CutOff       TCut            ....  1.000e-14 Eh

Convergence Tolerance:
 Convergence Check Mode ConvCheckMode   .... Total+1el-Energy
 Convergence forced     ConvForced      .... 1
 Energy Change          TolE            ....  1.000e-09 Eh
 1-El. energy change                    ....  1.000e-06 Eh
 Orbital Gradient       TolG            ....  2.000e-06
 Orbital Rotation angle TolX            ....  2.000e-06
 DIIS Error             TolErr          ....  1.000e-08


Diagonalization of the overlap matrix:
Smallest eigenvalue                        ... 6.287e-06
Time for diagonalization                   ...    0.242 sec
Threshold for overlap eigenvalues          ... 1.000e-08
Number of eigenvalues below threshold      ... 0
Time for construction of square roots      ...    0.139 sec
Total time needed                          ...    0.387 sec

Time for model grid setup =    0.524 sec

------------------------------
INITIAL GUESS: MODEL POTENTIAL
------------------------------
Loading Hartree-Fock densities                     ... done
Calculating cut-offs                               ... done
Initializing the effective Hamiltonian             ... done
Setting up the integral package (SHARK)            ... done
Starting the Coulomb interaction                   ... done (   1.4 sec)
Reading the grid                                   ... done
Mapping shells                                     ... done
Starting the XC term evaluation                    ... done (   0.4 sec)
Transforming the Hamiltonian                       ... done (   0.1 sec)
Diagonalizing the Hamiltonian                      ... done (   0.3 sec)
Back transforming the eigenvectors                 ... done (   0.1 sec)
Now organizing SCF variables                       ... done
                      ------------------
                      INITIAL GUESS DONE (   2.8 sec)
                      ------------------
--------------
SCF ITERATIONS
--------------
ITER       Energy         Delta-E        Max-DP      RMS-DP      [F,P]     Damp
               ***  Starting incremental Fock matrix formation  ***
  0  -1032.8565671883   0.000000000000 0.03384380  0.00056653  0.2949385 0.7000
  1  -1033.2169032514  -0.360336063061 0.02793679  0.00045671  0.2189900 0.7000
                               ***Turning on DIIS***
  2  -1033.4387812133  -0.221877961922 0.02129454  0.00031181  0.1615011 0.7000
  3  -1036.3424578208  -2.903676607457 0.01701265  0.00022612  0.1180449 0.7000
  4  -1035.9333596003   0.409098220512 0.04631430  0.00058852  0.0834987 0.0000
  5  -1034.0098598951   1.923499705155 0.00821738  0.00007429  0.0044554 0.0000
                      *** Initiating the SOSCF procedure ***
                           *** Shutting down DIIS ***
                      *** Re-Reading the Fockian *** 
                      *** Removing any level shift *** 
ITER      Energy       Delta-E        Grad      Rot      Max-DP    RMS-DP
  6  -1033.92618549   0.0836744086  0.001531  0.001531  0.004938  0.000040
               *** Restarting incremental Fock matrix formation ***
  7  -1033.91054396   0.0156415246  0.000518  0.001095  0.002269  0.000021
  8  -1033.91057450  -0.0000305423  0.000324  0.000835  0.002348  0.000017
  9  -1033.91058265  -0.0000081444  0.000090  0.000142  0.000571  0.000005
 10  -1033.91058356  -0.0000009162  0.000072  0.000239  0.000226  0.000002
 11  -1033.91058381  -0.0000002403  0.000030  0.000151  0.000069  0.000001
 12  -1033.91058386  -0.0000000535  0.000012  0.000036  0.000050  0.000000
 13  -1033.91058387  -0.0000000086  0.000003  0.000005  0.000016  0.000000
 14  -1033.91058387  -0.0000000009  0.000002  0.000004  0.000004  0.000000
                  ***Gradient check signals convergence***
              ***Rediagonalizing the Fockian in SOSCF/NRSCF***

               *****************************************************
               *                     SUCCESS                       *
               *           SCF CONVERGED AFTER  15 CYCLES          *
               *****************************************************


----------------
TOTAL SCF ENERGY
----------------

Total Energy       :        -1033.91058387 Eh          -28134.13730 eV

Components:
Nuclear Repulsion  :         2296.52360534 Eh           62491.58431 eV
Electronic Energy  :        -3330.43418921 Eh          -90625.72161 eV
One Electron Energy:        -5949.26470077 Eh         -161887.72272 eV
Two Electron Energy:         2618.83051155 Eh           71262.00111 eV

Virial components:
Potential Energy   :        -2066.94291515 Eh          -56244.37613 eV
Kinetic Energy     :         1033.03233129 Eh           28110.23883 eV
Virial Ratio       :            2.00085017


---------------
SCF CONVERGENCE
---------------

  Last Energy change         ...   -1.5325e-10  Tolerance :   1.0000e-09
  Last MAX-Density change    ...    3.3135e-06  Tolerance :   1.0000e-08
  Last RMS-Density change    ...    2.9989e-08  Tolerance :   1.0000e-09
  Last Orbital Gradient      ...    3.9405e-07  Tolerance :   2.0000e-06
  Last Orbital Rotation      ...    7.9802e-07  Tolerance :   2.0000e-06

             **** THE GBW FILE WAS UPDATED (Fentanyl_OProt_1.gbw) ****
             **** DENSITY Fentanyl_OProt_1.scfp WAS UPDATED ****
             **** ENERGY FILE WAS UPDATED (Fentanyl_OProt_1.en.tmp) ****
             **** THE GBW FILE WAS UPDATED (Fentanyl_OProt_1.gbw) ****
             **** DENSITY Fentanyl_OProt_1.scfp WAS UPDATED ****
----------------
ORBITAL ENERGIES
----------------

  NO   OCC          E(Eh)            E(eV) 
   0   2.0000     -20.790265      -565.7319 
   1   2.0000     -15.781329      -429.4318 
   2   2.0000     -15.630841      -425.3368 
   3   2.0000     -11.554516      -314.4144 
   4   2.0000     -11.410050      -310.4832 
   5   2.0000     -11.405278      -310.3534 
   6   2.0000     -11.403288      -310.2992 
   7   2.0000     -11.374886      -309.5264 
   8   2.0000     -11.365419      -309.2688 
   9   2.0000     -11.364891      -309.2544 
  10   2.0000     -11.357417      -309.0510 
  11   2.0000     -11.356364      -309.0224 
  12   2.0000     -11.354096      -308.9606 
  13   2.0000     -11.348114      -308.7979 
  14   2.0000     -11.346726      -308.7601 
  15   2.0000     -11.335889      -308.4652 
  16   2.0000     -11.334277      -308.4213 
  17   2.0000     -11.332043      -308.3606 
  18   2.0000     -11.310394      -307.7715 
  19   2.0000     -11.305784      -307.6460 
  20   2.0000     -11.304757      -307.6181 
  21   2.0000     -11.303057      -307.5718 
  22   2.0000     -11.301371      -307.5259 
  23   2.0000     -11.300464      -307.5012 
  24   2.0000     -11.299177      -307.4662 
  25   2.0000      -1.635677       -44.5090 
  26   2.0000      -1.456006       -39.6199 
  27   2.0000      -1.338036       -36.4098 
  28   2.0000      -1.282352       -34.8946 
  29   2.0000      -1.235404       -33.6171 
  30   2.0000      -1.228675       -33.4340 
  31   2.0000      -1.193565       -32.4785 
  32   2.0000      -1.155715       -31.4486 
  33   2.0000      -1.148502       -31.2523 
  34   2.0000      -1.135372       -30.8950 
  35   2.0000      -1.128231       -30.7007 
  36   2.0000      -1.086529       -29.5660 
  37   2.0000      -1.077539       -29.3213 
  38   2.0000      -1.050461       -28.5845 
  39   2.0000      -1.020203       -27.7611 
  40   2.0000      -0.991524       -26.9807 
  41   2.0000      -0.973558       -26.4919 
  42   2.0000      -0.958518       -26.0826 
  43   2.0000      -0.940555       -25.5938 
  44   2.0000      -0.929892       -25.3037 
  45   2.0000      -0.899762       -24.4838 
  46   2.0000      -0.892739       -24.2927 
  47   2.0000      -0.875509       -23.8238 
  48   2.0000      -0.871009       -23.7014 
  49   2.0000      -0.856240       -23.2995 
  50   2.0000      -0.830538       -22.6001 
  51   2.0000      -0.823075       -22.3970 
  52   2.0000      -0.791553       -21.5392 
  53   2.0000      -0.773202       -21.0399 
  54   2.0000      -0.769459       -20.9380 
  55   2.0000      -0.758181       -20.6312 
  56   2.0000      -0.753273       -20.4976 
  57   2.0000      -0.738365       -20.0919 
  58   2.0000      -0.734923       -19.9983 
  59   2.0000      -0.729662       -19.8551 
  60   2.0000      -0.722476       -19.6596 
  61   2.0000      -0.718961       -19.5639 
  62   2.0000      -0.714950       -19.4548 
  63   2.0000      -0.705537       -19.1986 
  64   2.0000      -0.698714       -19.0130 
  65   2.0000      -0.695720       -18.9315 
  66   2.0000      -0.680075       -18.5058 
  67   2.0000      -0.673888       -18.3374 
  68   2.0000      -0.668945       -18.2029 
  69   2.0000      -0.665835       -18.1183 
  70   2.0000      -0.656339       -17.8599 
  71   2.0000      -0.652040       -17.7429 
  72   2.0000      -0.643092       -17.4994 
  73   2.0000      -0.637554       -17.3487 
  74   2.0000      -0.631808       -17.1924 
  75   2.0000      -0.626390       -17.0449 
  76   2.0000      -0.622413       -16.9367 
  77   2.0000      -0.607897       -16.5417 
  78   2.0000      -0.600066       -16.3286 
  79   2.0000      -0.595045       -16.1920 
  80   2.0000      -0.576581       -15.6896 
  81   2.0000      -0.572535       -15.5795 
  82   2.0000      -0.559031       -15.2120 
  83   2.0000      -0.555884       -15.1264 
  84   2.0000      -0.553820       -15.0702 
  85   2.0000      -0.547947       -14.9104 
  86   2.0000      -0.469012       -12.7625 
  87   2.0000      -0.465533       -12.6678 
  88   2.0000      -0.441042       -12.0014 
  89   2.0000      -0.409858       -11.1528 
  90   2.0000      -0.398359       -10.8399 
  91   0.0000      -0.020539        -0.5589 
  92   0.0000      -0.018803        -0.5116 
  93   0.0000      -0.004037        -0.1098 
  94   0.0000       0.001399         0.0381 
  95   0.0000       0.023745         0.6461 
  96   0.0000       0.039246         1.0679 
  97   0.0000       0.042645         1.1604 
  98   0.0000       0.045497         1.2380 
  99   0.0000       0.051553         1.4028 
 100   0.0000       0.054458         1.4819 
 101   0.0000       0.061003         1.6600 
 102   0.0000       0.071568         1.9475 
 103   0.0000       0.072562         1.9745 
 104   0.0000       0.078820         2.1448 
 105   0.0000       0.081503         2.2178 
 106   0.0000       0.083506         2.2723 
 107   0.0000       0.089242         2.4284 
 108   0.0000       0.093253         2.5375 
 109   0.0000       0.103094         2.8053 
 110   0.0000       0.103846         2.8258 
 111   0.0000       0.108760         2.9595 
 112   0.0000       0.114167         3.1066 
 113   0.0000       0.116259         3.1636 
 114   0.0000       0.121249         3.2994 
 115   0.0000       0.123887         3.3711 
 116   0.0000       0.126825         3.4511 
 117   0.0000       0.133944         3.6448 
 118   0.0000       0.145125         3.9490 
 119   0.0000       0.147046         4.0013 
 120   0.0000       0.151772         4.1299 
 121   0.0000       0.155619         4.2346 
 122   0.0000       0.160899         4.3783 
 123   0.0000       0.162590         4.4243 
 124   0.0000       0.168726         4.5913 
 125   0.0000       0.172861         4.7038 
 126   0.0000       0.178038         4.8446 
 127   0.0000       0.180816         4.9203 
 128   0.0000       0.189687         5.1616 
 129   0.0000       0.193721         5.2714 
 130   0.0000       0.200825         5.4647 
 131   0.0000       0.204882         5.5751 
 132   0.0000       0.209726         5.7069 
 133   0.0000       0.212191         5.7740 
 134   0.0000       0.217570         5.9204 
 135   0.0000       0.220309         5.9949 
 136   0.0000       0.222760         6.0616 
 137   0.0000       0.226918         6.1748 
 138   0.0000       0.232357         6.3228 
 139   0.0000       0.235990         6.4216 
 140   0.0000       0.238166         6.4808 
 141   0.0000       0.245380         6.6771 
 142   0.0000       0.248014         6.7488 
 143   0.0000       0.252693         6.8761 
 144   0.0000       0.258135         7.0242 
 145   0.0000       0.265659         7.2290 
 146   0.0000       0.268447         7.3048 
 147   0.0000       0.274870         7.4796 
 148   0.0000       0.276860         7.5337 
 149   0.0000       0.279735         7.6120 
 150   0.0000       0.284642         7.7455 
 151   0.0000       0.290232         7.8976 
 152   0.0000       0.295547         8.0422 
 153   0.0000       0.298640         8.1264 
 154   0.0000       0.304018         8.2728 
 155   0.0000       0.308598         8.3974 
 156   0.0000       0.310249         8.4423 
 157   0.0000       0.316072         8.6008 
 158   0.0000       0.325168         8.8483 
 159   0.0000       0.326824         8.8933 
 160   0.0000       0.330140         8.9836 
 161   0.0000       0.336910         9.1678 
 162   0.0000       0.344334         9.3698 
 163   0.0000       0.351811         9.5733 
 164   0.0000       0.355163         9.6645 
 165   0.0000       0.361106         9.8262 
 166   0.0000       0.368044        10.0150 
 167   0.0000       0.370858        10.0916 
 168   0.0000       0.377276        10.2662 
 169   0.0000       0.383318        10.4306 
 170   0.0000       0.384204        10.4547 
 171   0.0000       0.394802        10.7431 
 172   0.0000       0.397642        10.8204 
 173   0.0000       0.399623        10.8743 
 174   0.0000       0.403564        10.9815 
 175   0.0000       0.407262        11.0822 
 176   0.0000       0.410771        11.1777 
 177   0.0000       0.417870        11.3708 
 178   0.0000       0.419332        11.4106 
 179   0.0000       0.423643        11.5279 
 180   0.0000       0.424552        11.5527 
 181   0.0000       0.428066        11.6483 
 182   0.0000       0.429788        11.6951 
 183   0.0000       0.432886        11.7794 
 184   0.0000       0.438920        11.9436 
 185   0.0000       0.441882        12.0242 
 186   0.0000       0.445694        12.1279 
 187   0.0000       0.450202        12.2506 
 188   0.0000       0.452218        12.3055 
 189   0.0000       0.456638        12.4257 
 190   0.0000       0.460506        12.5310 
 191   0.0000       0.465333        12.6624 
 192   0.0000       0.467522        12.7219 
 193   0.0000       0.473154        12.8752 
 194   0.0000       0.478850        13.0302 
 195   0.0000       0.480849        13.0846 
 196   0.0000       0.485527        13.2118 
 197   0.0000       0.488359        13.2889 
 198   0.0000       0.490370        13.3436 
 199   0.0000       0.492530        13.4024 
 200   0.0000       0.497154        13.5283 
 201   0.0000       0.501026        13.6336 
 202   0.0000       0.504713        13.7339 
 203   0.0000       0.506291        13.7769 
 204   0.0000       0.509094        13.8531 
 205   0.0000       0.510504        13.8915 
 206   0.0000       0.514953        14.0126 
 207   0.0000       0.517531        14.0827 
 208   0.0000       0.523457        14.2440 
 209   0.0000       0.525296        14.2940 
 210   0.0000       0.527549        14.3553 
 211   0.0000       0.530404        14.4330 
 212   0.0000       0.533594        14.5198 
 213   0.0000       0.535217        14.5640 
 214   0.0000       0.541898        14.7458 
 215   0.0000       0.543135        14.7794 
 216   0.0000       0.548091        14.9143 
 217   0.0000       0.552808        15.0427 
 218   0.0000       0.556213        15.1353 
 219   0.0000       0.559078        15.2133 
 220   0.0000       0.562577        15.3085 
 221   0.0000       0.565472        15.3873 
 222   0.0000       0.569231        15.4896 
 223   0.0000       0.572771        15.5859 
 224   0.0000       0.575963        15.6728 
 225   0.0000       0.580223        15.7887 
 226   0.0000       0.583621        15.8811 
 227   0.0000       0.587998        16.0002 
 228   0.0000       0.592874        16.1329 
 229   0.0000       0.596583        16.2338 
 230   0.0000       0.600592        16.3429 
 231   0.0000       0.604099        16.4384 
 232   0.0000       0.608459        16.5570 
 233   0.0000       0.615274        16.7424 
 234   0.0000       0.617634        16.8067 
 235   0.0000       0.625595        17.0233 
 236   0.0000       0.629766        17.1368 
 237   0.0000       0.631255        17.1773 
 238   0.0000       0.637800        17.3554 
 239   0.0000       0.644862        17.5476 
 240   0.0000       0.652686        17.7605 
 241   0.0000       0.656501        17.8643 
 242   0.0000       0.657895        17.9022 
 243   0.0000       0.664677        18.0868 
 244   0.0000       0.668961        18.2033 
 245   0.0000       0.677633        18.4393 
 246   0.0000       0.683098        18.5880 
 247   0.0000       0.686209        18.6727 
 248   0.0000       0.697282        18.9740 
 249   0.0000       0.702003        19.1025 
 250   0.0000       0.705989        19.2109 
 251   0.0000       0.715270        19.4635 
 252   0.0000       0.725516        19.7423 
 253   0.0000       0.730050        19.8657 
 254   0.0000       0.737437        20.0667 
 255   0.0000       0.743566        20.2335 
 256   0.0000       0.750135        20.4122 
 257   0.0000       0.755875        20.5684 
 258   0.0000       0.769746        20.9458 
 259   0.0000       0.776240        21.1226 
 260   0.0000       0.783592        21.3226 
 261   0.0000       0.788187        21.4477 
 262   0.0000       0.798195        21.7200 
 263   0.0000       0.802399        21.8344 
 264   0.0000       0.804275        21.8854 
 265   0.0000       0.808768        22.0077 
 266   0.0000       0.815062        22.1790 
 267   0.0000       0.818486        22.2721 
 268   0.0000       0.823296        22.4030 
 269   0.0000       0.827111        22.5068 
 270   0.0000       0.834367        22.7043 
 271   0.0000       0.841041        22.8859 
 272   0.0000       0.851824        23.1793 
 273   0.0000       0.856074        23.2950 
 274   0.0000       0.857975        23.3467 
 275   0.0000       0.865024        23.5385 
 276   0.0000       0.872644        23.7458 
 277   0.0000       0.882439        24.0124 
 278   0.0000       0.883023        24.0283 
 279   0.0000       0.886901        24.1338 
 280   0.0000       0.894079        24.3291 
 281   0.0000       0.895389        24.3648 
 282   0.0000       0.903626        24.5889 
 283   0.0000       0.908788        24.7294 
 284   0.0000       0.914225        24.8773 
 285   0.0000       0.918702        24.9991 
 286   0.0000       0.928472        25.2650 
 287   0.0000       0.928829        25.2747 
 288   0.0000       0.936944        25.4956 
 289   0.0000       0.945083        25.7170 
 290   0.0000       0.955184        25.9919 
 291   0.0000       0.955711        26.0062 
 292   0.0000       0.962896        26.2017 
 293   0.0000       0.967805        26.3353 
 294   0.0000       0.981420        26.7058 
 295   0.0000       0.982835        26.7443 
 296   0.0000       0.984818        26.7983 
 297   0.0000       0.987179        26.8625 
 298   0.0000       0.995289        27.0832 
 299   0.0000       1.000220        27.2174 
 300   0.0000       1.009003        27.4564 
 301   0.0000       1.014888        27.6165 
 302   0.0000       1.021013        27.7832 
 303   0.0000       1.024661        27.8824 
 304   0.0000       1.037540        28.2329 
 305   0.0000       1.039396        28.2834 
 306   0.0000       1.045869        28.4595 
 307   0.0000       1.057571        28.7780 
 308   0.0000       1.060931        28.8694 
 309   0.0000       1.069754        29.1095 
 310   0.0000       1.075287        29.2600 
 311   0.0000       1.080509        29.4022 
 312   0.0000       1.086405        29.5626 
 313   0.0000       1.095993        29.8235 
 314   0.0000       1.100902        29.9571 
 315   0.0000       1.114182        30.3184 
 316   0.0000       1.120577        30.4925 
 317   0.0000       1.126141        30.6439 
 318   0.0000       1.133903        30.8551 
 319   0.0000       1.143376        31.1129 
 320   0.0000       1.148595        31.2549 
 321   0.0000       1.158912        31.5356 
 322   0.0000       1.162246        31.6263 
 323   0.0000       1.167780        31.7769 
 324   0.0000       1.176554        32.0156 
 325   0.0000       1.186447        32.2849 
 326   0.0000       1.189190        32.3595 
 327   0.0000       1.201520        32.6950 
 328   0.0000       1.203487        32.7485 
 329   0.0000       1.212343        32.9895 
 330   0.0000       1.215485        33.0750 
 331   0.0000       1.223862        33.3030 
 332   0.0000       1.230821        33.4924 
 333   0.0000       1.238588        33.7037 
 334   0.0000       1.243775        33.8448 
 335   0.0000       1.253198        34.1012 
 336   0.0000       1.256823        34.1999 
 337   0.0000       1.262123        34.3441 
 338   0.0000       1.268138        34.5078 
 339   0.0000       1.274775        34.6884 
 340   0.0000       1.280500        34.8442 
 341   0.0000       1.296893        35.2903 
 342   0.0000       1.299615        35.3643 
 343   0.0000       1.307722        35.5849 
 344   0.0000       1.311615        35.6909 
 345   0.0000       1.318465        35.8773 
 346   0.0000       1.331468        36.2311 
 347   0.0000       1.336541        36.3691 
 348   0.0000       1.342837        36.5405 
 349   0.0000       1.349548        36.7231 
 350   0.0000       1.354333        36.8533 
 351   0.0000       1.359398        36.9911 
 352   0.0000       1.366930        37.1961 
 353   0.0000       1.373129        37.3647 
 354   0.0000       1.380146        37.5557 
 355   0.0000       1.390377        37.8341 
 356   0.0000       1.395433        37.9717 
 357   0.0000       1.400007        38.0961 
 358   0.0000       1.403533        38.1921 
 359   0.0000       1.404930        38.2301 
 360   0.0000       1.413917        38.4746 
 361   0.0000       1.423472        38.7346 
 362   0.0000       1.426833        38.8261 
 363   0.0000       1.435198        39.0537 
 364   0.0000       1.438802        39.1518 
 365   0.0000       1.452307        39.5193 
 366   0.0000       1.454625        39.5823 
 367   0.0000       1.461091        39.7583 
 368   0.0000       1.466829        39.9144 
 369   0.0000       1.480772        40.2939 
 370   0.0000       1.487206        40.4689 
 371   0.0000       1.491934        40.5976 
 372   0.0000       1.501076        40.8463 
 373   0.0000       1.507292        41.0155 
 374   0.0000       1.517429        41.2913 
 375   0.0000       1.520164        41.3658 
 376   0.0000       1.526903        41.5491 
 377   0.0000       1.540678        41.9240 
 378   0.0000       1.542332        41.9690 
 379   0.0000       1.553288        42.2671 
 380   0.0000       1.563091        42.5339 
 381   0.0000       1.569959        42.7208 
 382   0.0000       1.583554        43.0907 
 383   0.0000       1.589936        43.2643 
 384   0.0000       1.597450        43.4688 
 385   0.0000       1.610128        43.8138 
 386   0.0000       1.620682        44.1010 
 387   0.0000       1.626703        44.2648 
 388   0.0000       1.628883        44.3242 
 389   0.0000       1.634897        44.4878 
 390   0.0000       1.648305        44.8527 
 391   0.0000       1.649984        44.8983 
 392   0.0000       1.653501        44.9941 
 393   0.0000       1.656762        45.0828 
 394   0.0000       1.664364        45.2897 
 395   0.0000       1.670049        45.4444 
 396   0.0000       1.678672        45.6790 
 397   0.0000       1.688038        45.9338 
 398   0.0000       1.693681        46.0874 
 399   0.0000       1.697675        46.1961 
 400   0.0000       1.709849        46.5274 
 401   0.0000       1.718075        46.7512 
 402   0.0000       1.721108        46.8337 
 403   0.0000       1.723409        46.8963 
 404   0.0000       1.725601        46.9560 
 405   0.0000       1.734110        47.1875 
 406   0.0000       1.740486        47.3610 
 407   0.0000       1.752729        47.6942 
 408   0.0000       1.755582        47.7718 
 409   0.0000       1.762951        47.9723 
 410   0.0000       1.763773        47.9947 
 411   0.0000       1.776100        48.3301 
[...]
sum of PNO error estimates for the kept pairs         ...      -0.012176062186 Eh
                                                          --------------------
sum of all corrections                                         -0.034858320687
Initial total correlation energy                               -3.985519461966
Thresholds for map construction and integral transformation for fine MP2 and CCSD(T) calculation:
   TCutMKN   ...     1.0e-03
   TCutDO    ...     1.0e-02
   TCutPairs ...     1.0e-04
   TCutCMO   ...     1.0e-03
   TCutCPAO  ...     1.0e-03

Thresholds for map construction and integral transformation for strong Triples:
   TCutMKN   ...     1.0e-02
   TCutDO    ...     2.0e-02
   TCutCMO   ...     1.0e-03
   TCutCPAO  ...     1.0e-03

Thresholds for map construction and integral transformation for weak Triples:
   TCutMKN   ...     1.0e-01
   TCutDO    ...     4.0e-02
   TCutCMO   ...     1.0e-03
   TCutCPAO  ...     1.0e-03

--------------------------------
LOCAL RI TRANSFORMATION (IAVPAO)
--------------------------------

Orbital window:      25 to 90
Number of PAOs:     949
Basis functions:    949 (391 shells)
Aux. functions:    2335 (753 shells)
Use SHARK:           on

Processing maps (0.1 sec)
Average map sizes:
   Aux shells -> MOs              56.4
   Aux shells -> PAOs            949.0
   MOs        -> AO shells       329.8
   PAOs       -> AO shells       380.4

Calculating integrals (11.6 sec, 965.151 MB)
Sorting integrals (2.1 sec, 957.221 MB)
Total time for the integral transformation: 14.0 sec
--------------------------------
INITIAL GUESS AND PNO GENERATION
--------------------------------

PNO truncation parameters                   .... 
    PAOOverlapThresh   =        1.000e-08

    TCutPairs          =        1.000e-04
    TCutPNO            =        3.330e-07
    TCutPNOSingles     =        9.990e-09
    TCutMP2Pairs       =        1.000e-05
    TCutMKN            =        1.000e-03
    TCutDO             =        1.000e-02

Pair selection                          .... not used
Type of local MP2 treatment                 .... semi-local MP2
Strategy for PNO selection                  .... occupation number selection
Pair density normalization                  .... MP2 norm
Spin component scaling                      .... not used

   .... Finished loop over pairs

 PNO Occupation Number Statistics: 
  | Av. % of trace(Dij) retained        ...  97.482720638464
  | sigma^2 in % of trace(Dij) retained ...   6.26e+00
  | Av. % of trace(Di) retained         ...  99.999029912122
  | sigma^2 in % of trace(Di) retained  ...   1.06e-07
 Distributions of % trace(Dij) recovered:
  |       >= 99.9  ...   206 ( 15.3 % of all pairs)
  |   [70.0, 80.0) ...     2 (  0.1 % of all pairs)
  |   [80.0, 90.0) ...    14 (  1.0 % of all pairs)
  |   [90.0, 99.0) ...   845 ( 62.8 % of all pairs)
  |   [99.0, 99.9) ...   278 ( 20.7 % of all pairs)
 Distributions of % trace(Di) recovered :
  |       >= 99.9  ...    66 (100.0 % of all I-pairs )

Making pair pair interaction lists          ... done

                       ===========================
                        748 OF 1345 PAIRS ARE KEPT
                       ===========================

Total time spent in the initial guess                 ...    77.633 sec
SL-MP2 correlation energy (all non-screened pairs)    ...      -3.986971941866 Eh

Initial PNO correlation energy                        ...      -3.954592550502 Eh
sum of pair energies estimated for screened out pairs ...      -0.002650097039 Eh
sum of MP2 pair energies for pairs that were not kept ...      -0.020116589589 Eh
sum of PNO error estimates for the kept pairs         ...      -0.012262801774 Eh
                                                          --------------------
sum of all corrections                                         -0.035029488402
Initial total correlation energy                               -3.989622038905
Thresholds for map construction and integral transformation for fine MP2 and CCSD(T) calculation:
   TCutMKN   ...     1.0e-03
   TCutDO    ...     1.0e-02
   TCutPairs ...     1.0e-04
   TCutCMO   ...     1.0e-03
   TCutCPAO  ...     1.0e-03

Time for aux screen maps:            0.014
Time for maps after fine MP2:            0.100
-----------------------------
LOCAL RI TRANSFORMATION (IJV)
-----------------------------

Orbital window:      25 to 90
Basis functions:    949 (391 shells)
Aux. functions:    2335 (753 shells)
Use SHARK:           on

Processing maps (0.0 sec)
Average map sizes:
   Aux shells -> MOs(i)           45.0
   Aux shells -> MOs(j)           66.0
   MOs        -> AO shells       329.8

Calculating integrals (9.5 sec, 54.180 MB)
Sorting integrals (0.2 sec, 54.154 MB)
Total time for the integral transformation: 9.7 sec
--------------------------------
LOCAL RI TRANSFORMATION (VABPAO)
--------------------------------

Number of PAOs:     949
Basis functions:    949 (391 shells)
Aux. functions:    2335 (753 shells)
Use SHARK:           on

Processing maps (0.0 sec)
Average map sizes:
   Aux shells -> PAOs            879.3
   PAOs       -> AO shells       380.4

Calculating integrals (40.3 sec, 14052.897 MB)
Finished


-------------------------------------
Pair Pair Term precalculation with     
RI-(ij|mn) and (im|jn) transformation  
ON THE FLY                             
-------------------------------------

   IBatch   1 (of   8)              ... done (   55.854 sec)
   IBatch   2 (of   8)              ... done (   55.285 sec)
   IBatch   3 (of   8)              ... done (   75.524 sec)
   IBatch   4 (of   8)              ... done (   76.160 sec)
   IBatch   5 (of   8)              ... done (   72.086 sec)
   IBatch   6 (of   8)              ... done (  103.482 sec)
   IBatch   7 (of   8)              ... done (  117.512 sec)
   IBatch   8 (of   8)              ... done (  104.330 sec)
Total EXT                           ...         660.235 sec

---------------------
RI-PNO TRANSFORMATION
---------------------

Total Number of PNOs                   ... 23495
Average number of PNOs per pair        ...    31
Maximal number of PNOs per pair        ...    80
   #pairs with  1 -  5 PNOs   :    0
   #pairs with  6 - 10 PNOs   :   28
   #pairs with 11 - 15 PNOs   :  120
   #pairs with 16 - 20 PNOs   :  103
   #pairs with 21 - 25 PNOs   :   49
   #pairs with 26 - 30 PNOs   :   81
   #pairs with 31 - 35 PNOs   :  105
   #pairs with 36 - 40 PNOs   :   53
   #pairs with 41 - 45 PNOs   :   56
   #pairs with 46 - 50 PNOs   :   80
   #pairs with 51 - 55 PNOs   :    8
   #pairs with 56 - 60 PNOs   :   23
   #pairs with 61 - 65 PNOs   :   12
   #pairs with 71 - 75 PNOs   :   24
   #pairs with 76 - 80 PNOs   :    6

Generation of (ij|ab)[P] integrals            ... on
Generation of (ia|bc)[P],(ja|bc)[P] integrals ... on
Storage of 3 and 4 external integrals         ... on
Generation of ALL (ka|bc)[P] integrals        ... on
Keep RI integrals in memory                   ... off

Ibatch:  1 (of  1)
Starting 2-4 index PNO integral generation ... done

Timings:
Total PNO integral transformation time     ...        279.881 sec
Size of the 3-external file                ...       342 MB
Size of the 4-external file                ...      2315 MB
Size of the IKJL file                      ...         0 MB
Size of the all 3-external file            ...      9237 MB
Size of the 1-external file                ...        29 MB

Making pair/pair overlap matrices          ... done (   64.538 sec)
Size of the pair overlap file              ... 2741 MB
Redoing the guess amplitudes               ... done (    0.565 sec)

-------------------------
FINAL STARTUP INFORMATION
-------------------------

E(0)                                       ...  -1033.910583869
E(SL-MP2)                                  ...     -3.986971942
E(SL-MP2) including corrections            ...     -3.989622039
Initial E(tot)                             ...  -1037.900205908
<T|T>                                      ...      1.174226662
Number of pairs included                   ... 748
Total number of pairs                      ... 2211

------------------------------------------------
                  RHF COUPLED CLUSTER ITERATIONS
------------------------------------------------

Number of PNO amplitudes to be optimized   ...       933663
Number of non-PNO amplitudes               ...    550650672
Untruncated number of regular amplitudes   ...   1627658604

Iter       E(tot)           E(Corr)          Delta-E          Residual     Time
  0  -1037.900389605     -3.954776247      0.032195695      0.016768949   62.30
                           *** Turning on DIIS ***
  1  -1038.062998668     -4.117385311     -0.162609063      0.009302467   61.55
  2  -1038.167979144     -4.222365786     -0.104980476      0.004591424   66.45
  3  -1038.185935696     -4.240322338     -0.017956552      0.002499752   60.95
  4  -1038.190889969     -4.245276612     -0.004954273      0.001312710   60.31
  5  -1038.192387945     -4.246774587     -0.001497975      0.000685282   60.12
  6  -1038.192842657     -4.247229299     -0.000454712      0.000269950   60.38
  7  -1038.192877628     -4.247264271     -0.000034972      0.000129842   60.27
  8  -1038.192891362     -4.247278004     -0.000013733      0.000067369   61.08
  9  -1038.192876045     -4.247262688      0.000015317      0.000037553   60.09
 10  -1038.192879781     -4.247266423     -0.000003736      0.000015360   60.63
 11  -1038.192878618     -4.247265261      0.000001163      0.000004848   60.90
 12  -1038.192879155     -4.247265798     -0.000000537      0.000001688   60.57
 13  -1038.192878842     -4.247265484      0.000000314      0.000000690   59.92
               --- The Coupled-Cluster iterations have converged ---

----------------------
COUPLED CLUSTER ENERGY
----------------------

E(0)                                       ...  -1033.910583869
E(CORR)(strong-pairs)                      ...     -4.247265484
E(CORR)(weak-pairs)                        ...     -0.035029488
E(CORR)(corrected)                         ...     -4.282294973
E(TOT)                                     ...  -1038.192878842
Singles Norm <S|S>**1/2                    ...      0.118267066  
T1 diagnostic                              ...      0.010293827  

------------------
LARGEST AMPLITUDES
------------------
  40-> 91  40-> 91       0.049917
  37-> 93  37-> 93       0.047988
  42-> 93  42-> 93       0.047056
  39-> 91  39-> 91       0.046782
  35-> 91  35-> 91       0.046218
  82-> 95  82-> 95       0.045282
  83-> 95  83-> 95       0.044669
  33-> 91  33-> 91       0.044517
  31-> 91  31-> 91       0.044469
  86-> 95  86-> 95       0.044438
  28-> 92  28-> 92       0.043809
  88-> 95  88-> 95       0.043641
  89-> 95  89-> 95       0.043311
  87-> 95  87-> 95       0.042262
  29-> 93  29-> 93       0.039906
  44-> 91  44-> 91       0.039261


-------------------------------------------
DLPNO BASED TRIPLES CORRECTION
-------------------------------------------

Singles multiplier          ...  1.000000
TCutTNO                     ... 1.000e-09
TCutMP2Pairs                ... 1.000e-05
TCutDOStrong                ... 2.000e-02
TCutMKNStrong               ... 1.000e-02
TCutDOWeak                  ... 4.000e-02
TCutMKNWeak                 ... 1.000e-01

Fragment selection                          .... not used
Fock matrix occ-virt block is zero --> Setting DT_in_Triples to false.
Number of Triples that are to be computed   ...      8427

 . . . . . . . . .             (    209.236 sec)
 . . . . . . . . .
10% done  
20% done               (    221.887 sec)
 . . . . . . . . .
30% done  
40% done               (    264.009 sec)
 . . . . . . . . .
50% done  
60% done  
70% done               (    340.841 sec)
 . . . . . . . . .
80% done  
90% done               (    284.675 sec)
Triples timings:
Total time for T0               ...  1424.317 sec
Total time for Iterative (T)    ...     0.000 sec
Total time of overall (T)       ...  1438.828 sec

Triples List generation         ...     0.000 sec
TNO generation                  ...   103.540 sec
Pair density generation         ...     0.030 sec
Look up tables                  ...     0.000 sec
Generating 3-index integrals    ...   912.214 sec
  Make 4-ind.int. from 3-ind.int...    76.974 sec
  Projecting amplitudes (D + S) ...   259.910 sec
  Downprojecting integrals      ...     0.013 sec
  Energy contr. (sum over a,b,c)...    13.851 sec
Fitting ET(->0)                 ...     0.000 sec

Everything after 3-index        ...   408.435 sec

Timing details:
 TNO integrals                  ...   982.307 sec
   Reading 3-index integrals    ...    80.989 sec
   Sorting integrals            ...   127.729 sec
       Sorting integrals 1      ...     0.012 sec
       Sorting integrals 2      ...   100.430 sec
       Sorting integrals 3      ...     3.650 sec
       Sorting integrals 4      ...     0.495 sec
       Sorting integrals 5      ...     1.530 sec
       Sorting integrals 6      ...    21.611 sec
   Calculating local VM**-1/2   ...     5.732 sec
   Orthogonal. integrals        ...     7.951 sec
   Multipl. 3-index integrals   ...   759.907 sec
   All concerning IRIab (w/TNO) ...    38.233 sec

 Calculate W0/W1                ...    57.628 sec
 W 3-ext contribution           ...    29.661 sec
 W 3-int contribution           ...    12.978 sec
 Sorting W                      ...    13.244 sec

 V exchange contribution        ...     4.112 sec

 Timings for Triples without generation
     of 3-index integrals       ...   408.410 sec
       0 weak pairs             ...   279.422 sec
       1 weak pair              ...   128.988 sec
       2 weak pairs             ...     0.000 sec
       3 weak pairs             ...     0.000 sec
  Extra time for extrapolation  ...     0.000 sec

Number of Triples   (0, 1, 2, 3 weak pairs; overall):   4689    3738       0       0  (  8427)
Number of Atoms     (0, 1, 2, 3 weak pairs; overall):   17.8    14.8     0.0     0.0  (    54)
Number of PAOs      (0, 1, 2, 3 weak pairs; overall):  380.0   334.9     0.0     0.0  (   949)
Number of AuxFcns   (0, 1, 2, 3 weak pairs; overall):  465.0   356.5     0.0     0.0  (  2335)
Number of TNOs      (0, 1, 2, 3 weak pairs         ):   85.6    57.3     0.0     0.0
Aver. Number of NTNO, Atoms, PAOs, AuxFcns / Triples:   8427    73.0    16.5   360.0   416.9

Triples Correction (T)                     ...     -0.193267573
Final correlation energy                   ...     -4.475562545
E(CCSD)                                    ...  -1038.192878842
E(CCSD(T))                                 ...  -1038.386146414



--------------------------------------------------------------------------------
                                    TIMINGS
--------------------------------------------------------------------------------


Total execution time                   ...     3922.907 sec

Localization of occupied MO's          ...        8.098 sec (  0.2%)
Fock Matrix Formation                  ...      335.624 sec (  8.6%)
Global overlap, Fock, MKN matrices     ...        2.009 sec (  0.1%)
Differential overlap integrals         ...        6.174 sec (  0.2%)
Organizing maps                        ...        0.272 sec (  0.0%)
RI 3-index integral generations        ...       78.490 sec (  2.0%)
RI-PNO integral transformation         ...     1064.652 sec ( 27.1%)
Initial Guess                          ...      132.100 sec (  3.4%)
DIIS Solver                            ...        2.431 sec (  0.1%)
State Vector Update                    ...        0.109 sec (  0.0%)
Sigma-vector construction              ...      852.957 sec ( 21.7%)
  <0|H|D>                              ...        0.004 sec (  0.0% of sigma)
  <D|H|D>(0-ext)                       ...       59.996 sec (  7.0% of sigma)
  <D|H|D>(2-ext Fock)                  ...        0.295 sec (  0.0% of sigma)
  <D|H|D>(2-ext)                       ...      114.212 sec ( 13.4% of sigma)
  <D|H|D>(4-ext)                       ...       52.567 sec (  6.2% of sigma)
  <D|H|D>(4-ext-corr)                  ...      276.950 sec ( 32.5% of sigma)
  CCSD doubles correction              ...        1.639 sec (  0.2% of sigma)
  <S|H|S>                              ...       10.575 sec (  1.2% of sigma)
  <S|H|D>(1-ext)                       ...        8.137 sec (  1.0% of sigma)
  <D|H|S>(1-ext)                       ...        0.351 sec (  0.0% of sigma)
  <S|H|D>(3-ext)                       ...        4.314 sec (  0.5% of sigma)
  CCSD singles correction              ...        0.008 sec (  0.0% of sigma)
  Fock-dressing                        ...      246.225 sec ( 28.9% of sigma)
  Singles amplitudes                   ...        7.397 sec (  0.9% of sigma)
  (ik|jl)-dressing                     ...       40.306 sec (  4.7% of sigma)
  (ij|ab),(ia|jb)-dressing             ...       14.501 sec (  1.7% of sigma)
  Pair energies                        ...        0.050 sec (  0.0% of sigma)
Total Time for computing (T)           ...     1438.850 sec ( 36.7% of ALL)


Maximum memory used throughout the entire MDCI-calculation: 3463.0 MB

-------------------------   --------------------
FINAL SINGLE POINT ENERGY     -1038.386146414418
-------------------------   --------------------


                            ***************************************
                            *     ORCA property calculations      *
                            ***************************************


  WARNING: The energy has been calculated at the MDCI level but the densities
           used in the property calculations are still SCF densities
           MDCI response densities have not been calculated 
           use %mdci Density linearized end
           or  %mdci Density unrelaxed end
           or  %mdci Density orbopt end

                                    ---------------------
                                    Active property flags
                                    ---------------------
   (+) Dipole Moment


------------------------------------------------------------------------------
                       ORCA ELECTRIC PROPERTIES CALCULATION
------------------------------------------------------------------------------

Dipole Moment Calculation                       ... on
Quadrupole Moment Calculation                   ... off
Polarizability Calculation                      ... off
GBWName                                         ... Fentanyl_OProt_1.gbw
Electron density                                ... Fentanyl_OProt_1.scfp
The origin for moment calculation is the CENTER OF MASS  = (-0.005731, -0.015432 -0.028600)

-------------
DIPOLE MOMENT
-------------
                                X             Y             Z
Electronic contribution:      0.92009      -6.59437      -0.78449
Nuclear contribution   :      3.80770       7.41392       0.91823
                        -----------------------------------------
Total Dipole Moment    :      4.72779       0.81954       0.13374
                        -----------------------------------------
Magnitude (a.u.)       :      4.80016
Magnitude (Debye)      :     12.20104



--------------------
Rotational spectrum 
--------------------
 
Rotational constants in cm-1:     0.011190     0.005555     0.004293 
Rotational constants in MHz :   335.469097   166.549646   128.711256 

 Dipole components along the rotational axes: 
x,y,z [a.u.] :     4.744708     0.696393     0.210512 
x,y,z [Debye]:    12.060089     1.770090     0.535079 

 

Timings for individual modules:

Sum of individual times         ...     6677.850 sec (= 111.298 min)
GTO integral calculation        ...        2.754 sec (=   0.046 min)   0.0 %
SCF iterations                  ...     2749.575 sec (=  45.826 min)  41.2 %
MDCI module                     ...     3925.521 sec (=  65.425 min)  58.8 %
                             ****ORCA TERMINATED NORMALLY****
TOTAL RUN TIME: 0 days 1 hours 51 minutes 19 seconds 774 msec
