
Lmod is automatically replacing "intel/2020.1.217" with "gcc/10.3.0".


The following have been reloaded with a version change:
  1) gcccore/.9.3.0 => gcccore/.10.3.0        3) openmpi/4.0.3 => openmpi/4.1.1
  2) libfabric/1.10.1 => libfabric/1.12.1     4) ucx/1.8.0 => ucx/1.9.0

To execute ORCA, run: 
   ${EBROOTORCA}/orca orca.inp > orca.out
cp: cannot stat '/project/6006388/cieritan/Fentanyl_analogs/Fentanyl/O-Prot/CCSDT/*.hess': No such file or directory
cp: cannot stat '/project/6006388/cieritan/Fentanyl_analogs/Fentanyl/O-Prot/CCSDT/*.gbw': No such file or directory

                                 *****************
                                 * O   R   C   A *
                                 *****************

                                            #,                                       
                                            ###                                      
                                            ####                                     
                                            #####                                    
                                            ######                                   
                                           ########,                                 
                                     ,,################,,,,,                         
                               ,,#################################,,                 
                          ,,##########################################,,             
                       ,#########################################, ''#####,          
                    ,#############################################,,   '####,        
                  ,##################################################,,,,####,       
                ,###########''''           ''''###############################       
              ,#####''   ,,,,##########,,,,          '''####'''          '####       
            ,##' ,,,,###########################,,,                        '##       
           ' ,,###''''                  '''############,,,                           
         ,,##''                                '''############,,,,        ,,,,,,###''
      ,#''                                            '''#######################'''  
     '                                                          ''''####''''         
             ,#######,   #######,   ,#######,      ##                                
            ,#'     '#,  ##    ##  ,#'     '#,    #''#        ######   ,####,        
            ##       ##  ##   ,#'  ##            #'  '#       #        #'  '#        
            ##       ##  #######   ##           ,######,      #####,   #    #        
            '#,     ,#'  ##    ##  '#,     ,#' ,#      #,         ##   #,  ,#        
             '#######'   ##     ##  '#######'  #'      '#     #####' # '####'        



                  #######################################################
                  #                        -***-                        #
                  #          Department of theory and spectroscopy      #
                  #    Directorship and core code : Frank Neese         #
                  #        Max Planck Institute fuer Kohlenforschung    #
                  #                Kaiser Wilhelm Platz 1               #
                  #                 D-45470 Muelheim/Ruhr               #
                  #                      Germany                        #
                  #                                                     #
                  #                  All rights reserved                #
                  #                        -***-                        #
                  #######################################################


                         Program Version 5.0.4 -  RELEASE  -


 With contributions from (in alphabetic order):
   Daniel Aravena         : Magnetic Suceptibility
   Michael Atanasov       : Ab Initio Ligand Field Theory (pilot matlab implementation)
   Alexander A. Auer      : GIAO ZORA, VPT2 properties, NMR spectrum
   Ute Becker             : Parallelization
   Giovanni Bistoni       : ED, misc. LED, open-shell LED, HFLD
   Martin Brehm           : Molecular dynamics
   Dmytro Bykov           : SCF Hessian
   Vijay G. Chilkuri      : MRCI spin determinant printing, contributions to CSF-ICE
   Dipayan Datta          : RHF DLPNO-CCSD density
   Achintya Kumar Dutta   : EOM-CC, STEOM-CC
   Dmitry Ganyushin       : Spin-Orbit,Spin-Spin,Magnetic field MRCI
   Miquel Garcia          : C-PCM and meta-GGA Hessian, CC/C-PCM, Gaussian charge scheme
   Yang Guo               : DLPNO-NEVPT2, F12-NEVPT2, CIM, IAO-localization
   Andreas Hansen         : Spin unrestricted coupled pair/coupled cluster methods
   Benjamin Helmich-Paris : MC-RPA, TRAH-SCF, COSX integrals
   Lee Huntington         : MR-EOM, pCC
   Robert Izsak           : Overlap fitted RIJCOSX, COSX-SCS-MP3, EOM
   Marcus Kettner         : VPT2
   Christian Kollmar      : KDIIS, OOCD, Brueckner-CCSD(T), CCSD density, CASPT2, CASPT2-K
   Simone Kossmann        : Meta GGA functionals, TD-DFT gradient, OOMP2, MP2 Hessian
   Martin Krupicka        : Initial AUTO-CI
   Lucas Lang             : DCDCAS
   Marvin Lechner         : AUTO-CI (C++ implementation), FIC-MRCC
   Dagmar Lenk            : GEPOL surface, SMD
   Dimitrios Liakos       : Extrapolation schemes; Compound Job, initial MDCI parallelization
   Dimitrios Manganas     : Further ROCIS development; embedding schemes
   Dimitrios Pantazis     : SARC Basis sets
   Anastasios Papadopoulos: AUTO-CI, single reference methods and gradients
   Taras Petrenko         : DFT Hessian,TD-DFT gradient, ASA, ECA, R-Raman, ABS, FL, XAS/XES, NRVS
   Peter Pinski           : DLPNO-MP2, DLPNO-MP2 Gradient
   Christoph Reimann      : Effective Core Potentials
   Marius Retegan         : Local ZFS, SOC
   Christoph Riplinger    : Optimizer, TS searches, QM/MM, DLPNO-CCSD(T), (RO)-DLPNO pert. Triples
   Tobias Risthaus        : Range-separated hybrids, TD-DFT gradient, RPA, STAB
   Michael Roemelt        : Original ROCIS implementation
   Masaaki Saitow         : Open-shell DLPNO-CCSD energy and density
   Barbara Sandhoefer     : DKH picture change effects
   Avijit Sen             : IP-ROCIS
   Kantharuban Sivalingam : CASSCF convergence, NEVPT2, FIC-MRCI
   Bernardo de Souza      : ESD, SOC TD-DFT
   Georgi Stoychev        : AutoAux, RI-MP2 NMR, DLPNO-MP2 response
   Willem Van den Heuvel  : Paramagnetic NMR
   Boris Wezisla          : Elementary symmetry handling
   Frank Wennmohs         : Technical directorship


 We gratefully acknowledge several colleagues who have allowed us to
 interface, adapt or use parts of their codes:
   Stefan Grimme, W. Hujo, H. Kruse, P. Pracht,  : VdW corrections, initial TS optimization,
                  C. Bannwarth, S. Ehlert          DFT functionals, gCP, sTDA/sTD-DF
   Ed Valeev, F. Pavosevic, A. Kumar             : LibInt (2-el integral package), F12 methods
   Garnet Chan, S. Sharma, J. Yang, R. Olivares  : DMRG
   Ulf Ekstrom                                   : XCFun DFT Library
   Mihaly Kallay                                 : mrcc  (arbitrary order and MRCC methods)
   Jiri Pittner, Ondrej Demel                    : Mk-CCSD
   Frank Weinhold                                : gennbo (NPA and NBO analysis)
   Christopher J. Cramer and Donald G. Truhlar   : smd solvation model
   Lars Goerigk                                  : TD-DFT with DH, B97 family of functionals
   V. Asgeirsson, H. Jonsson                     : NEB implementation
   FAccTs GmbH                                   : IRC, NEB, NEB-TS, DLPNO-Multilevel, CI-OPT
                                                   MM, QMMM, 2- and 3-layer-ONIOM, Crystal-QMMM,
                                                   LR-CPCM, SF, NACMEs, symmetry and pop. for TD-DFT,
                                                   nearIR, NL-DFT gradient (VV10), updates on ESD,
                                                   ML-optimized integration grids
   S Lehtola, MJT Oliveira, MAL Marques          : LibXC Library
   Liviu Ungur et al                             : ANISO software


 Your calculation uses the libint2 library for the computation of 2-el integrals
 For citations please refer to: http://libint.valeyev.net

 Your ORCA version has been built with support for libXC version: 5.1.0
 For citations please refer to: https://tddft.org/programs/libxc/

 This ORCA versions uses:
   CBLAS   interface :  Fast vector & matrix operations
   LAPACKE interface :  Fast linear algebra routines
   SCALAPACK package :  Parallel linear algebra routines
   Shared memory     :  Shared parallel matrices
   BLAS/LAPACK       :  OpenBLAS 0.3.15  USE64BITINT DYNAMIC_ARCH NO_AFFINITY SkylakeX SINGLE_THREADED
        Core in use  :  SkylakeX
   Copyright (c) 2011-2014, The OpenBLAS Project


================================================================================

----- Orbital basis set information -----
Your calculation utilizes the basis: def2-TZVP
   F. Weigend and R. Ahlrichs, Phys. Chem. Chem. Phys. 7, 3297 (2005).

----- AuxC basis set information -----
Your calculation utilizes the auxiliary basis: def2-TZVP/C
  H-La, Hf-Rn : A. Hellweg, C. Hattig, S. Hofener and W. Klopper, Theor. Chem. Acc. 117, 587 (2007).
        Ce-Lu : J. Chmela and M. E. Harding, Mol. Phys. (2018).

================================================================================
                                        WARNINGS
                       Please study these warnings very carefully!
================================================================================


WARNING: Post HF methods need fully converged wavefunctions
  ===> : Setting SCFConvForced true
         You can overwrite this default with %scf ConvForced false 


WARNING: MDCI localization with Augmented Hessian Foster-Boys
  ===> : Switching off randomization!

INFO   : the flag for use of the SHARK integral package has been found!

================================================================================
                                       INPUT FILE
================================================================================
NAME = Fentanyl_OProt_38.inp
|  1> ! DLPNO-CCSD(T) def2-TZVP def2-TZVP/C VeryTightSCF
|  2> %maxcore 3400
|  3> 
|  4> %pal nprocs 8 
|  5> end
|  6> 
|  7> *xyz 1 1
|  8> O             0.005592        -1.627839         0.772355
|  9> N            -1.888154         1.957665        -0.396632
| 10> N             1.598696        -0.306093        -0.232570
| 11> C             0.688236         0.840330        -0.545378
| 12> C            -0.398834         0.439184        -1.547066
| 13> C             0.187804         1.514390         0.735841
| 14> C            -1.407111         1.575472        -1.704798
| 15> C            -0.848748         2.580986         0.387575
| 16> C            -3.212340         2.552160        -0.347595
| 17> C            -4.301397         1.488487        -0.569069
| 18> C             2.983718        -0.129694        -0.629219
| 19> C             1.229045        -1.397152         0.378588
| 20> C            -3.999122         0.241636         0.225670
| 21> C             2.173589        -2.497980         0.739033
| 22> C             3.378460        -0.535796        -1.895038
| 23> C             3.862685         0.490076         0.244805
| 24> C             2.587701        -2.380773         2.214267
| 25> C            -3.637422        -0.941058        -0.412847
| 26> C            -3.996025         0.270468         1.619091
| 27> C             4.694356        -0.327663        -2.286453
| 28> C             5.176751         0.694910        -0.157386
| 29> C             5.591083         0.285474        -1.418792
| 30> C            -3.260256        -2.063935         0.317768
| 31> C            -3.616925        -0.843954         2.355133
| 32> C            -3.239008        -2.015502         1.706338
| 33> H             1.339550         1.556046        -1.049171
| 34> H            -0.954345        -0.446327        -1.231060
| 35> H             0.072429         0.198079        -2.503968
| 36> H             1.040721         1.951428         1.262699
| 37> H            -0.288619         0.806728         1.419159
| 38> H            -0.945672         2.425990        -2.237480
| 39> H            -2.238676         1.226421        -2.317401
| 40> H            -1.275345         2.978273         1.309580
| 41> H            -0.365706         3.422366        -0.140982
| 42> H            -3.336807         2.979304         0.649874
| 43> H            -3.338261         3.375719        -1.066786
| 44> H            -4.382208         1.235723        -1.629244
| 45> H            -5.265988         1.913916        -0.278849
| 46> H             3.046079        -2.472946         0.090266
| 47> H             1.638221        -3.434995         0.574862
| 48> H             2.668574        -1.015174        -2.560158
| 49> H             3.525477         0.808546         1.224765
| 50> H             3.219274        -3.229206         2.477267
| 51> H             1.714627        -2.387467         2.868393
| 52> H             3.156897        -1.466716         2.391447
| 53> H            -3.658020        -0.988647        -1.497940
| 54> H            -4.292393         1.177660         2.137199
| 55> H             5.018548        -0.645498        -3.270323
| 56> H             5.875980         1.174921         0.517001
| 57> H             6.617045         0.446250        -1.728337
| 58> H            -2.996714        -2.981454        -0.198212
| 59> H            -3.627995        -0.804052         3.438982
| 60> H            -2.953625        -2.890234         2.279946
| 61> H            -0.651139        -0.939889         0.574144
| 62> *
| 63> 
| 64> 
| 65>                          ****END OF INPUT****
================================================================================

                       ****************************
                       * Single Point Calculation *
                       ****************************

---------------------------------
CARTESIAN COORDINATES (ANGSTROEM)
---------------------------------
  O      0.005592   -1.627839    0.772355
  N     -1.888154    1.957665   -0.396632
  N      1.598696   -0.306093   -0.232570
  C      0.688236    0.840330   -0.545378
  C     -0.398834    0.439184   -1.547066
  C      0.187804    1.514390    0.735841
  C     -1.407111    1.575472   -1.704798
  C     -0.848748    2.580986    0.387575
  C     -3.212340    2.552160   -0.347595
  C     -4.301397    1.488487   -0.569069
  C      2.983718   -0.129694   -0.629219
  C      1.229045   -1.397152    0.378588
  C     -3.999122    0.241636    0.225670
  C      2.173589   -2.497980    0.739033
  C      3.378460   -0.535796   -1.895038
  C      3.862685    0.490076    0.244805
  C      2.587701   -2.380773    2.214267
  C     -3.637422   -0.941058   -0.412847
  C     -3.996025    0.270468    1.619091
  C      4.694356   -0.327663   -2.286453
  C      5.176751    0.694910   -0.157386
  C      5.591083    0.285474   -1.418792
  C     -3.260256   -2.063935    0.317768
  C     -3.616925   -0.843954    2.355133
  C     -3.239008   -2.015502    1.706338
  H      1.339550    1.556046   -1.049171
  H     -0.954345   -0.446327   -1.231060
  H      0.072429    0.198079   -2.503968
  H      1.040721    1.951428    1.262699
  H     -0.288619    0.806728    1.419159
  H     -0.945672    2.425990   -2.237480
  H     -2.238676    1.226421   -2.317401
  H     -1.275345    2.978273    1.309580
  H     -0.365706    3.422366   -0.140982
  H     -3.336807    2.979304    0.649874
  H     -3.338261    3.375719   -1.066786
  H     -4.382208    1.235723   -1.629244
  H     -5.265988    1.913916   -0.278849
  H      3.046079   -2.472946    0.090266
  H      1.638221   -3.434995    0.574862
  H      2.668574   -1.015174   -2.560158
  H      3.525477    0.808546    1.224765
  H      3.219274   -3.229206    2.477267
  H      1.714627   -2.387467    2.868393
  H      3.156897   -1.466716    2.391447
  H     -3.658020   -0.988647   -1.497940
  H     -4.292393    1.177660    2.137199
  H      5.018548   -0.645498   -3.270323
  H      5.875980    1.174921    0.517001
  H      6.617045    0.446250   -1.728337
  H     -2.996714   -2.981454   -0.198212
  H     -3.627995   -0.804052    3.438982
  H     -2.953625   -2.890234    2.279946
  H     -0.651139   -0.939889    0.574144

----------------------------
CARTESIAN COORDINATES (A.U.)
----------------------------
  NO LB      ZA    FRAG     MASS         X           Y           Z
   0 O     8.0000    0    15.999    0.010567   -3.076170    1.459539
   1 N     7.0000    0    14.007   -3.568094    3.699451   -0.749526
   2 N     7.0000    0    14.007    3.021098   -0.578432   -0.439494
   3 C     6.0000    0    12.011    1.300578    1.587994   -1.030615
   4 C     6.0000    0    12.011   -0.753687    0.829937   -2.923531
   5 C     6.0000    0    12.011    0.354898    2.861782    1.390538
   6 C     6.0000    0    12.011   -2.659054    2.977211   -3.221601
   7 C     6.0000    0    12.011   -1.603901    4.877357    0.732411
   8 C     6.0000    0    12.011   -6.070443    4.822883   -0.656859
   9 C     6.0000    0    12.011   -8.128462    2.812833   -1.075385
  10 C     6.0000    0    12.011    5.638410   -0.245086   -1.189052
  11 C     6.0000    0    12.011    2.322558   -2.640235    0.715428
  12 C     6.0000    0    12.011   -7.557245    0.456626    0.426454
  13 C     6.0000    0    12.011    4.107488   -4.720498    1.396570
  14 C     6.0000    0    12.011    6.384364   -1.012508   -3.581103
  15 C     6.0000    0    12.011    7.299417    0.926109    0.462614
  16 C     6.0000    0    12.011    4.890046   -4.499009    4.184358
  17 C     6.0000    0    12.011   -6.873731   -1.778342   -0.780168
  18 C     6.0000    0    12.011   -7.551393    0.511110    3.059639
  19 C     6.0000    0    12.011    8.871047   -0.619193   -4.320770
  20 C     6.0000    0    12.011    9.782642    1.313190   -0.297416
  21 C     6.0000    0    12.011   10.565616    0.539468   -2.681128
  22 C     6.0000    0    12.011   -6.160991   -3.900272    0.600494
  23 C     6.0000    0    12.011   -6.834998   -1.594842    4.450556
  24 C     6.0000    0    12.011   -6.120838   -3.808747    3.224512
  25 H     1.0000    0     1.008    2.531383    2.940501   -1.982646
  26 H     1.0000    0     1.008   -1.803451   -0.843436   -2.326366
  27 H     1.0000    0     1.008    0.136871    0.374315   -4.731814
  28 H     1.0000    0     1.008    1.966678    3.687664    2.386155
  29 H     1.0000    0     1.008   -0.545411    1.524495    2.681822
  30 H     1.0000    0     1.008   -1.787061    4.584457   -4.228224
  31 H     1.0000    0     1.008   -4.230485    2.317600   -4.379253
  32 H     1.0000    0     1.008   -2.410053    5.628120    2.474748
  33 H     1.0000    0     1.008   -0.691084    6.467334   -0.266417
  34 H     1.0000    0     1.008   -6.305651    5.630069    1.228084
  35 H     1.0000    0     1.008   -6.308399    6.379184   -2.015933
  36 H     1.0000    0     1.008   -8.281173    2.335178   -3.078825
  37 H     1.0000    0     1.008   -9.951275    3.616777   -0.526948
  38 H     1.0000    0     1.008    5.756255   -4.673191    0.170578
  39 H     1.0000    0     1.008    3.095789   -6.491200    1.086332
  40 H     1.0000    0     1.008    5.042874   -1.918401   -4.837997
  41 H     1.0000    0     1.008    6.662186    1.527931    2.314470
  42 H     1.0000    0     1.008    6.083546   -6.102315    4.681356
  43 H     1.0000    0     1.008    3.240175   -4.511659    5.420477
  44 H     1.0000    0     1.008    5.965671   -2.771692    4.519180
  45 H     1.0000    0     1.008   -6.912656   -1.868272   -2.830696
  46 H     1.0000    0     1.008   -8.111447    2.225455    4.038721
  47 H     1.0000    0     1.008    9.483681   -1.219814   -6.180015
  48 H     1.0000    0     1.008   11.103993    2.220279    0.976990
  49 H     1.0000    0     1.008   12.504403    0.843290   -3.266084
  50 H     1.0000    0     1.008   -5.662969   -5.634132   -0.374566
  51 H     1.0000    0     1.008   -6.855917   -1.519438    6.498734
  52 H     1.0000    0     1.008   -5.581542   -5.461751    4.308474
  53 H     1.0000    0     1.008   -1.230474   -1.776133    1.084975

--------------------------------
INTERNAL COORDINATES (ANGSTROEM)
--------------------------------
 O      0   0   0     0.000000000000     0.00000000     0.00000000
 N      1   0   0     4.220028845008     0.00000000     0.00000000
 N      1   2   0     2.301057821733    72.64271680     0.00000000
 C      3   1   2     1.497021025702    96.31950944   359.47314005
 C      4   3   1     1.531671683998   111.57574787   295.41498326
 C      4   3   1     1.531767344013   111.15628812    65.90418230
 C      2   1   3     1.445258503055    82.91657322    57.37761020
 C      2   1   3     1.443563133613    83.87322101   304.76369444
 C      2   1   3     1.452342072306   138.38189268   179.46228506
 C      9   2   1     1.538342007765   110.95166394   323.28862029
 C      3   1   2     1.451458913261   148.18998748   177.92986965
 C      3   1   2     1.304057400671    28.17469837   178.47658446
 C     10   9   2     1.509177812568   110.71041177    43.89515127
 C     12   3   1     1.494625789803   123.37450016   181.94938203
 C     11   3   1     1.386736392300   119.04413659    91.85813261
 C     11   3   1     1.385862833243   119.15738667   269.18773260
 C     14  12   3     1.536730810568   110.22044496    98.77673394
 C     13  10   9     1.391867790749   120.82975122   248.96005672
 C     13  10   9     1.393722697983   120.65342770    64.99624201
 C     15  11   3     1.388563045285   118.89259898   178.01959824
 C     16  11   3     1.389418590776   118.89540279   182.05477962
 C     21  16  11     1.389407766336   120.09205507     0.21942276
 C     18  13  10     1.391727425508   121.00863340   175.10521022
 C     19  13  10     1.388312295504   120.93441173   185.09677621
 C     23  18  13     1.389576870091   120.04050189   359.92495965
 H      4   3   1     1.090993449156   103.63843806   180.53346786
 H      5   4   3     1.092054025348   112.59111568    53.28223142
 H      5   4   3     1.093563840751   108.91389327   294.67731289
 H      6   4   3     1.093640239977   108.90564390    64.06375377
 H      6   4   3     1.093017781327   112.35869761   305.32003507
 H      7   2   1     1.104561873400   111.83491878   225.45186868
 H      7   2   1     1.090238224167   109.83987024   106.66928551
 H      8   2   1     1.090832333956   109.56300117   252.19125420
 H      8   2   1     1.104817804171   112.56598490   132.84167455
 H      9   2   1     1.092194321898   107.14712630    81.85005848
 H      9   2   1     1.100609476246   112.86412604   199.28348349
 H     10   9   2     1.092882010119   110.60516235   282.27522887
 H     10   9   2     1.093459317818   108.49850307   165.93293774
 H     14  12   3     1.087549594982   110.25360700   336.17152859
 H     14  12   3     1.091589722785   106.61954554   218.13742243
 H     15  11   3     1.084493436716   120.19475906   357.49448815
 H     16  11   3     1.084183553539   120.27457559     2.01429659
 H     17  14  12     1.089904587484   109.17358676   176.06525200
 H     17  14  12     1.090955472505   111.06767611    56.69013150
 H     17  14  12     1.091273127162   111.11884613   295.19768717
 H     18  13  10     1.086331353305   119.37487348   354.62113634
 H     19  13  10     1.085940705542   119.58257553     4.98001325
 H     20  15  11     1.083568049081   119.70368715   179.61556603
 H     21  16  11     1.083572600397   119.69966818   180.22739004
 H     22  21  16     1.083635111394   119.86465457   180.05525321
 H     23  18  13     1.085140940857   119.89347848   179.04070351
 H     24  19  13     1.084639741714   119.83251417   180.44121780
 H     25  23  18     1.084262729313   120.30167196   179.50152686
 H      1   2   3     0.971523756468    15.94929466   189.05757372

---------------------------
INTERNAL COORDINATES (A.U.)
---------------------------
 O      0   0   0     0.000000000000     0.00000000     0.00000000
 N      1   0   0     7.974698794313     0.00000000     0.00000000
 N      1   2   0     4.348369101392    72.64271680     0.00000000
 C      3   1   2     2.828959755298    96.31950944   359.47314005
 C      4   3   1     2.894440009837   111.57574787   295.41498326
 C      4   3   1     2.894620781069   111.15628812    65.90418230
 C      2   1   3     2.731142763496    82.91657322    57.37761020
 C      2   1   3     2.727938979553    83.87322101   304.76369444
 C      2   1   3     2.744528769430   138.38189268   179.46228506
 C      9   2   1     2.907045094982   110.95166394   323.28862029
 C      3   1   2     2.742859840703   148.18998748   177.92986965
 C      3   1   2     2.464311350182    28.17469837   178.47658446
 C     10   9   2     2.851932753144   110.71041177    43.89515127
 C     12   3   1     2.824433415424   123.37450016   181.94938203
 C     11   3   1     2.620552001389   119.04413659    91.85813261
 C     11   3   1     2.618901214010   119.15738667   269.18773260
 C     14  12   3     2.904000373532   110.22044496    98.77673394
 C     13  10   9     2.630248939142   120.82975122   248.96005672
 C     13  10   9     2.633754205818   120.65342770    64.99624201
 C     15  11   3     2.624003875272   118.89259898   178.01959824
 C     16  11   3     2.625620621945   118.89540279   182.05477962
 C     21  16  11     2.625600166719   120.09205507     0.21942276
 C     18  13  10     2.629983687277   121.00863340   175.10521022
 C     19  13  10     2.623530026858   120.93441173   185.09677621
 C     23  18  13     2.625919726504   120.04050189   359.92495965
 H      4   3   1     2.061678832807   103.63843806   180.53346786
 H      5   4   3     2.063683031353   112.59111568    53.28223142
 H      5   4   3     2.066536168978   108.91389327   294.67731289
 H      6   4   3     2.066680542592   108.90564390    64.06375377
 H      6   4   3     2.065504266214   112.35869761   305.32003507
 H      7   2   1     2.087319438697   111.83491878   225.45186868
 H      7   2   1     2.060251664408   109.83987024   106.66928551
 H      8   2   1     2.061374369202   109.56300117   252.19125420
 H      8   2   1     2.087803077763   112.56598490   132.84167455
 H      9   2   1     2.063948153411   107.14712630    81.85005848
 H      9   2   1     2.079850490504   112.86412604   199.28348349
 H     10   9   2     2.065247695814   110.60516235   282.27522887
 H     10   9   2     2.066338649260   108.49850307   165.93293774
 H     14  12   3     2.055170891573   110.25360700   336.17152859
 H     14  12   3     2.062805626667   106.61954554   218.13742243
 H     15  11   3     2.049395589428   120.19475906   357.49448815
 H     16  11   3     2.048809995090   120.27457559     2.01429659
 H     17  14  12     2.059621182449   109.17358676   176.06525200
 H     17  14  12     2.061607067337   111.06767611    56.69013150
 H     17  14  12     2.062207347643   111.11884613   295.19768717
 H     18  13  10     2.052868748439   119.37487348   354.62113634
 H     19  13  10     2.052130531151   119.58257553     4.98001325
 H     20  15  11     2.047646860230   119.70368715   179.61556603
 H     21  16  11     2.047655460971   119.69966818   180.22739004
 H     22  21  16     2.047773589635   119.86465457   180.05525321
 H     23  18  13     2.050619194926   119.89347848   179.04070351
 H     24  19  13     2.049672065806   119.83251417   180.44121780
 H     25  23  18     2.048959615619   120.30167196   179.50152686
 H      1   2   3     1.835913832323    15.94929466   189.05757372

---------------------
BASIS SET INFORMATION
---------------------
There are 4 groups of distinct atoms

 Group   1 Type O   : 11s6p2d1f contracted to 5s3p2d1f pattern {62111/411/11/1}
 Group   2 Type N   : 11s6p2d1f contracted to 5s3p2d1f pattern {62111/411/11/1}
 Group   3 Type C   : 11s6p2d1f contracted to 5s3p2d1f pattern {62111/411/11/1}
 Group   4 Type H   : 5s1p contracted to 3s1p pattern {311/1}

Atom   0O    basis set group =>   1
Atom   1N    basis set group =>   2
Atom   2N    basis set group =>   2
Atom   3C    basis set group =>   3
Atom   4C    basis set group =>   3
Atom   5C    basis set group =>   3
Atom   6C    basis set group =>   3
Atom   7C    basis set group =>   3
Atom   8C    basis set group =>   3
Atom   9C    basis set group =>   3
Atom  10C    basis set group =>   3
Atom  11C    basis set group =>   3
Atom  12C    basis set group =>   3
Atom  13C    basis set group =>   3
Atom  14C    basis set group =>   3
Atom  15C    basis set group =>   3
Atom  16C    basis set group =>   3
Atom  17C    basis set group =>   3
Atom  18C    basis set group =>   3
Atom  19C    basis set group =>   3
Atom  20C    basis set group =>   3
Atom  21C    basis set group =>   3
Atom  22C    basis set group =>   3
Atom  23C    basis set group =>   3
Atom  24C    basis set group =>   3
Atom  25H    basis set group =>   4
Atom  26H    basis set group =>   4
Atom  27H    basis set group =>   4
Atom  28H    basis set group =>   4
Atom  29H    basis set group =>   4
Atom  30H    basis set group =>   4
Atom  31H    basis set group =>   4
Atom  32H    basis set group =>   4
Atom  33H    basis set group =>   4
Atom  34H    basis set group =>   4
Atom  35H    basis set group =>   4
Atom  36H    basis set group =>   4
Atom  37H    basis set group =>   4
Atom  38H    basis set group =>   4
Atom  39H    basis set group =>   4
Atom  40H    basis set group =>   4
Atom  41H    basis set group =>   4
Atom  42H    basis set group =>   4
Atom  43H    basis set group =>   4
Atom  44H    basis set group =>   4
Atom  45H    basis set group =>   4
Atom  46H    basis set group =>   4
Atom  47H    basis set group =>   4
Atom  48H    basis set group =>   4
Atom  49H    basis set group =>   4
Atom  50H    basis set group =>   4
Atom  51H    basis set group =>   4
Atom  52H    basis set group =>   4
Atom  53H    basis set group =>   4
---------------------------------
AUXILIARY/C BASIS SET INFORMATION
---------------------------------
There are 4 groups of distinct atoms

 Group   1 Type O   : 8s6p5d3f1g contracted to 8s6p4d3f1g pattern {11111111/111111/2111/111/1}
 Group   2 Type N   : 8s6p5d3f1g contracted to 8s6p4d3f1g pattern {11111111/111111/2111/111/1}
 Group   3 Type C   : 8s6p5d3f1g contracted to 8s6p4d3f1g pattern {11111111/111111/2111/111/1}
 Group   4 Type H   : 4s3p2d contracted to 4s2p1d pattern {1111/21/2}

Atom   0O    basis set group =>   1
Atom   1N    basis set group =>   2
Atom   2N    basis set group =>   2
Atom   3C    basis set group =>   3
Atom   4C    basis set group =>   3
Atom   5C    basis set group =>   3
Atom   6C    basis set group =>   3
Atom   7C    basis set group =>   3
Atom   8C    basis set group =>   3
Atom   9C    basis set group =>   3
Atom  10C    basis set group =>   3
Atom  11C    basis set group =>   3
Atom  12C    basis set group =>   3
Atom  13C    basis set group =>   3
Atom  14C    basis set group =>   3
Atom  15C    basis set group =>   3
Atom  16C    basis set group =>   3
Atom  17C    basis set group =>   3
Atom  18C    basis set group =>   3
Atom  19C    basis set group =>   3
Atom  20C    basis set group =>   3
Atom  21C    basis set group =>   3
Atom  22C    basis set group =>   3
Atom  23C    basis set group =>   3
Atom  24C    basis set group =>   3
Atom  25H    basis set group =>   4
Atom  26H    basis set group =>   4
Atom  27H    basis set group =>   4
Atom  28H    basis set group =>   4
Atom  29H    basis set group =>   4
Atom  30H    basis set group =>   4
Atom  31H    basis set group =>   4
Atom  32H    basis set group =>   4
Atom  33H    basis set group =>   4
Atom  34H    basis set group =>   4
Atom  35H    basis set group =>   4
Atom  36H    basis set group =>   4
Atom  37H    basis set group =>   4
Atom  38H    basis set group =>   4
Atom  39H    basis set group =>   4
Atom  40H    basis set group =>   4
Atom  41H    basis set group =>   4
Atom  42H    basis set group =>   4
Atom  43H    basis set group =>   4
Atom  44H    basis set group =>   4
Atom  45H    basis set group =>   4
Atom  46H    basis set group =>   4
Atom  47H    basis set group =>   4
Atom  48H    basis set group =>   4
Atom  49H    basis set group =>   4
Atom  50H    basis set group =>   4
Atom  51H    basis set group =>   4
Atom  52H    basis set group =>   4
Atom  53H    basis set group =>   4


           ************************************************************
           *        Program running with 8 parallel MPI-processes     *
           *              working on a common directory               *
           ************************************************************
------------------------------------------------------------------------------
                           ORCA GTO INTEGRAL CALCULATION
------------------------------------------------------------------------------
------------------------------------------------------------------------------
                   ___                                                        
                  /   \      - P O W E R E D   B Y -                         
                 /     \                                                     
                 |  |  |   _    _      __       _____    __    __             
                 |  |  |  | |  | |    /  \     |  _  \  |  |  /  |          
                  \  \/   | |  | |   /    \    | | | |  |  | /  /          
                 / \  \   | |__| |  /  /\  \   | |_| |  |  |/  /          
                |  |  |   |  __  | /  /__\  \  |    /   |      \           
                |  |  |   | |  | | |   __   |  |    \   |  |\   \          
                \     /   | |  | | |  |  |  |  | |\  \  |  | \   \       
                 \___/    |_|  |_| |__|  |__|  |_| \__\ |__|  \__/        
                                                                              
                      - O R C A' S   B I G   F R I E N D -                    
                                      &                                       
                       - I N T E G R A L  F E E D E R -                       
                                                                              
 v1 FN, 2020, v2 2021                                                         
------------------------------------------------------------------------------


Reading SHARK input file Fentanyl_OProt_38.SHARKINP.tmp ... ok
----------------------
SHARK INTEGRAL PACKAGE
----------------------

Number of atoms                             ...     54
Number of basis functions                   ...    949
Number of shells                            ...    391
Maximum angular momentum                    ...      3
Integral batch strategy                     ... SHARK/LIBINT Hybrid
RI-J (if used) integral strategy            ... SPLIT-RIJ (Revised 2003 algorithm where possible)
Printlevel                                  ...      1
Contraction scheme used                     ... SEGMENTED contraction
Coulomb Range Separation                    ... NOT USED
Exchange Range Separation                   ... NOT USED
Finite Nucleus Model                        ... NOT USED
Auxiliary Coulomb fitting basis             ... NOT available
Auxiliary J/K fitting basis                 ... NOT available
Auxiliary Correlation fitting basis         ... AVAILABLE
   # of basis functions in Aux-C            ...   2335
   # of shells in Aux-C                     ...    753
   Maximum angular momentum in Aux-C        ...      4
Auxiliary 'external' fitting basis          ... NOT available
Integral threshold                          ...     1.000000e-12
Primitive cut-off                           ...     1.000000e-14
Primitive pair pre-selection threshold      ...     1.000000e-14

Calculating pre-screening integrals         ... done (  0.1 sec) Dimension = 391
Organizing shell pair data                  ... done (  0.5 sec)
Shell pair information
Total number of shell pairs                 ...     76636
Shell pairs after pre-screening             ...     57415
Total number of primitive shell pairs       ...    228112
Primitive shell pairs kept                  ...    114650
          la=0 lb=0:  16569 shell pairs
          la=1 lb=0:  17002 shell pairs
          la=1 lb=1:   4416 shell pairs
          la=2 lb=0:   7798 shell pairs
          la=2 lb=1:   4011 shell pairs
          la=2 lb=2:    930 shell pairs
          la=3 lb=0:   3646 shell pairs
          la=3 lb=1:   1941 shell pairs
          la=3 lb=2:    880 shell pairs
          la=3 lb=3:    222 shell pairs

Calculating one electron integrals          ... done (  0.1 sec)
Calculating RI/C V-Matrix + Cholesky decomp.... done (  0.5 sec)
Calculating Nuclear repulsion               ... done (  0.0 sec) ENN=   2285.088294992479 Eh

SHARK setup successfully completed in   2.0 seconds

Maximum memory used throughout the entire GTOINT-calculation: 83.5 MB
[1704049200.422348] [gra1211:168222:0]          mpool.c:42   UCX  WARN  object 0xaff9380 was not returned to mpool ucp_requests
[1704049200.422372] [gra1211:168222:0]          mpool.c:42   UCX  WARN  object 0xaff9540 was not returned to mpool ucp_requests
[1704049200.422381] [gra1211:168222:0]          mpool.c:42   UCX  WARN  object 0xaff9700 was not returned to mpool ucp_requests
[1704049200.422390] [gra1211:168222:0]          mpool.c:42   UCX  WARN  object 0xaff98c0 was not returned to mpool ucp_requests
[1704049200.422396] [gra1211:168222:0]          mpool.c:42   UCX  WARN  object 0xaff9a80 was not returned to mpool ucp_requests
[1704049200.422402] [gra1211:168222:0]          mpool.c:42   UCX  WARN  object 0xaff9c40 was not returned to mpool ucp_requests
[1704049200.422407] [gra1211:168222:0]          mpool.c:42   UCX  WARN  object 0xaff9e00 was not returned to mpool ucp_requests
[1704049200.422415] [gra1211:168222:0]          mpool.c:42   UCX  WARN  object 0xaff9fc0 was not returned to mpool ucp_requests
[1704049200.422426] [gra1211:168222:0]          mpool.c:42   UCX  WARN  object 0xaffa180 was not returned to mpool ucp_requests
[1704049200.422438] [gra1211:168222:0]          mpool.c:42   UCX  WARN  object 0xaffa340 was not returned to mpool ucp_requests
[1704049200.422446] [gra1211:168222:0]          mpool.c:42   UCX  WARN  object 0xaffa500 was not returned to mpool ucp_requests
[1704049200.422453] [gra1211:168222:0]          mpool.c:42   UCX  WARN  object 0xaffa6c0 was not returned to mpool ucp_requests
[1704049200.422460] [gra1211:168222:0]          mpool.c:42   UCX  WARN  object 0xaffa880 was not returned to mpool ucp_requests
[1704049200.422466] [gra1211:168222:0]          mpool.c:42   UCX  WARN  object 0xaffaa40 was not returned to mpool ucp_requests
[1704049200.422472] [gra1211:168222:0]          mpool.c:42   UCX  WARN  object 0xaffac00 was not returned to mpool ucp_requests
[1704049200.422477] [gra1211:168222:0]          mpool.c:42   UCX  WARN  object 0xaffadc0 was not returned to mpool ucp_requests
[1704049200.422483] [gra1211:168222:0]          mpool.c:42   UCX  WARN  object 0xaffaf80 was not returned to mpool ucp_requests
[1704049200.422489] [gra1211:168222:0]          mpool.c:42   UCX  WARN  object 0xaffb140 was not returned to mpool ucp_requests
[1704049200.422493] [gra1211:168220:0]          mpool.c:42   UCX  WARN  object 0xb565400 was not returned to mpool ucp_requests
[1704049200.422512] [gra1211:168220:0]          mpool.c:42   UCX  WARN  object 0xb5655c0 was not returned to mpool ucp_requests
[1704049200.422520] [gra1211:168220:0]          mpool.c:42   UCX  WARN  object 0xb565780 was not returned to mpool ucp_requests
[1704049200.422535] [gra1211:168220:0]          mpool.c:42   UCX  WARN  object 0xb565940 was not returned to mpool ucp_requests
[1704049200.422542] [gra1211:168220:0]          mpool.c:42   UCX  WARN  object 0xb565b00 was not returned to mpool ucp_requests
[1704049200.422549] [gra1211:168220:0]          mpool.c:42   UCX  WARN  object 0xb565cc0 was not returned to mpool ucp_requests
[1704049200.422555] [gra1211:168220:0]          mpool.c:42   UCX  WARN  object 0xb565e80 was not returned to mpool ucp_requests
[1704049200.422561] [gra1211:168220:0]          mpool.c:42   UCX  WARN  object 0xb566040 was not returned to mpool ucp_requests
[1704049200.422567] [gra1211:168220:0]          mpool.c:42   UCX  WARN  object 0xb566200 was not returned to mpool ucp_requests
[1704049200.422576] [gra1211:168220:0]          mpool.c:42   UCX  WARN  object 0xb5663c0 was not returned to mpool ucp_requests
[1704049200.422582] [gra1211:168220:0]          mpool.c:42   UCX  WARN  object 0xb566580 was not returned to mpool ucp_requests
[1704049200.422588] [gra1211:168220:0]          mpool.c:42   UCX  WARN  object 0xb566740 was not returned to mpool ucp_requests
[1704049200.422594] [gra1211:168220:0]          mpool.c:42   UCX  WARN  object 0xb566900 was not returned to mpool ucp_requests
[1704049200.422600] [gra1211:168220:0]          mpool.c:42   UCX  WARN  object 0xb566ac0 was not returned to mpool ucp_requests
[1704049200.422606] [gra1211:168220:0]          mpool.c:42   UCX  WARN  object 0xb566c80 was not returned to mpool ucp_requests
[1704049200.422612] [gra1211:168220:0]          mpool.c:42   UCX  WARN  object 0xb566e40 was not returned to mpool ucp_requests
[1704049200.422617] [gra1211:168220:0]          mpool.c:42   UCX  WARN  object 0xb567000 was not returned to mpool ucp_requests
[1704049200.422623] [gra1211:168220:0]          mpool.c:42   UCX  WARN  object 0xb5671c0 was not returned to mpool ucp_requests
[1704049200.422831] [gra1211:168219:0]          mpool.c:42   UCX  WARN  object 0xb9b7e80 was not returned to mpool ucp_requests
[1704049200.422868] [gra1211:168219:0]          mpool.c:42   UCX  WARN  object 0xb9b8040 was not returned to mpool ucp_requests
[1704049200.422877] [gra1211:168219:0]          mpool.c:42   UCX  WARN  object 0xb9b8200 was not returned to mpool ucp_requests
[1704049200.422885] [gra1211:168219:0]          mpool.c:42   UCX  WARN  object 0xb9b83c0 was not returned to mpool ucp_requests
[1704049200.422893] [gra1211:168219:0]          mpool.c:42   UCX  WARN  object 0xb9b8580 was not returned to mpool ucp_requests
[1704049200.422900] [gra1211:168219:0]          mpool.c:42   UCX  WARN  object 0xb9b8900 was not returned to mpool ucp_requests
[1704049200.422906] [gra1211:168219:0]          mpool.c:42   UCX  WARN  object 0xb9b8ac0 was not returned to mpool ucp_requests
[1704049200.422912] [gra1211:168219:0]          mpool.c:42   UCX  WARN  object 0xb9b8c80 was not returned to mpool ucp_requests
[1704049200.422918] [gra1211:168219:0]          mpool.c:42   UCX  WARN  object 0xb9b8e40 was not returned to mpool ucp_requests
[1704049200.422925] [gra1211:168219:0]          mpool.c:42   UCX  WARN  object 0xb9b9000 was not returned to mpool ucp_requests
[1704049200.422984] [gra1211:168224:0]          mpool.c:42   UCX  WARN  object 0xb4d9400 was not returned to mpool ucp_requests
[1704049200.423006] [gra1211:168224:0]          mpool.c:42   UCX  WARN  object 0xb4d95c0 was not returned to mpool ucp_requests
[1704049200.423021] [gra1211:168224:0]          mpool.c:42   UCX  WARN  object 0xb4d9780 was not returned to mpool ucp_requests
[1704049200.423022] [gra1211:168221:0]          mpool.c:42   UCX  WARN  object 0xaa20240 was not returned to mpool ucp_requests
[1704049200.423048] [gra1211:168221:0]          mpool.c:42   UCX  WARN  object 0xaa20400 was not returned to mpool ucp_requests
[1704049200.423056] [gra1211:168221:0]          mpool.c:42   UCX  WARN  object 0xaa205c0 was not returned to mpool ucp_requests
[1704049200.423064] [gra1211:168221:0]          mpool.c:42   UCX  WARN  object 0xaa20780 was not returned to mpool ucp_requests
[1704049200.423029] [gra1211:168224:0]          mpool.c:42   UCX  WARN  object 0xb4d9940 was not returned to mpool ucp_requests
[1704049200.423038] [gra1211:168224:0]          mpool.c:42   UCX  WARN  object 0xb4d9b00 was not returned to mpool ucp_requests
[1704049200.423045] [gra1211:168224:0]          mpool.c:42   UCX  WARN  object 0xb4d9cc0 was not returned to mpool ucp_requests
[1704049200.423058] [gra1211:168224:0]          mpool.c:42   UCX  WARN  object 0xb4d9e80 was not returned to mpool ucp_requests
[1704049200.423065] [gra1211:168224:0]          mpool.c:42   UCX  WARN  object 0xb4da040 was not returned to mpool ucp_requests
[1704049200.423071] [gra1211:168224:0]          mpool.c:42   UCX  WARN  object 0xb4da200 was not returned to mpool ucp_requests
[1704049200.423077] [gra1211:168224:0]          mpool.c:42   UCX  WARN  object 0xb4da3c0 was not returned to mpool ucp_requests
[1704049200.423087] [gra1211:168224:0]          mpool.c:42   UCX  WARN  object 0xb4da580 was not returned to mpool ucp_requests
[1704049200.423093] [gra1211:168224:0]          mpool.c:42   UCX  WARN  object 0xb4da740 was not returned to mpool ucp_requests
[1704049200.423099] [gra1211:168224:0]          mpool.c:42   UCX  WARN  object 0xb4da900 was not returned to mpool ucp_requests
[1704049200.423105] [gra1211:168224:0]          mpool.c:42   UCX  WARN  object 0xb4daac0 was not returned to mpool ucp_requests
[1704049200.423111] [gra1211:168224:0]          mpool.c:42   UCX  WARN  object 0xb4dac80 was not returned to mpool ucp_requests
[1704049200.423118] [gra1211:168224:0]          mpool.c:42   UCX  WARN  object 0xb4dae40 was not returned to mpool ucp_requests
[1704049200.423124] [gra1211:168224:0]          mpool.c:42   UCX  WARN  object 0xb4db000 was not returned to mpool ucp_requests
[1704049200.423130] [gra1211:168224:0]          mpool.c:42   UCX  WARN  object 0xb4db1c0 was not returned to mpool ucp_requests
[1704049200.423070] [gra1211:168221:0]          mpool.c:42   UCX  WARN  object 0xaa20940 was not returned to mpool ucp_requests
[1704049200.423078] [gra1211:168221:0]          mpool.c:42   UCX  WARN  object 0xaa20b00 was not returned to mpool ucp_requests
[1704049200.423084] [gra1211:168221:0]          mpool.c:42   UCX  WARN  object 0xaa20cc0 was not returned to mpool ucp_requests
[1704049200.423090] [gra1211:168221:0]          mpool.c:42   UCX  WARN  object 0xaa20e80 was not returned to mpool ucp_requests
[1704049200.423097] [gra1211:168221:0]          mpool.c:42   UCX  WARN  object 0xaa21040 was not returned to mpool ucp_requests
[1704049200.423103] [gra1211:168221:0]          mpool.c:42   UCX  WARN  object 0xaa21200 was not returned to mpool ucp_requests
[1704049200.423109] [gra1211:168221:0]          mpool.c:42   UCX  WARN  object 0xaa213c0 was not returned to mpool ucp_requests
[1704049200.423116] [gra1211:168221:0]          mpool.c:42   UCX  WARN  object 0xaa21580 was not returned to mpool ucp_requests
[1704049200.423122] [gra1211:168221:0]          mpool.c:42   UCX  WARN  object 0xaa21740 was not returned to mpool ucp_requests
[1704049200.423128] [gra1211:168221:0]          mpool.c:42   UCX  WARN  object 0xaa21900 was not returned to mpool ucp_requests
[1704049200.423134] [gra1211:168221:0]          mpool.c:42   UCX  WARN  object 0xaa21ac0 was not returned to mpool ucp_requests
[1704049200.423140] [gra1211:168221:0]          mpool.c:42   UCX  WARN  object 0xaa21c80 was not returned to mpool ucp_requests
[1704049200.423147] [gra1211:168221:0]          mpool.c:42   UCX  WARN  object 0xaa21e40 was not returned to mpool ucp_requests
[1704049200.423154] [gra1211:168221:0]          mpool.c:42   UCX  WARN  object 0xaa22000 was not returned to mpool ucp_requests
[1704049200.423638] [gra1211:168225:0]          mpool.c:42   UCX  WARN  object 0xa96e380 was not returned to mpool ucp_requests
[1704049200.423659] [gra1211:168225:0]          mpool.c:42   UCX  WARN  object 0xa96e540 was not returned to mpool ucp_requests
[1704049200.423668] [gra1211:168225:0]          mpool.c:42   UCX  WARN  object 0xa96e700 was not returned to mpool ucp_requests
[1704049200.423675] [gra1211:168225:0]          mpool.c:42   UCX  WARN  object 0xa96e8c0 was not returned to mpool ucp_requests
[1704049200.423682] [gra1211:168225:0]          mpool.c:42   UCX  WARN  object 0xa96ea80 was not returned to mpool ucp_requests
[1704049200.423689] [gra1211:168225:0]          mpool.c:42   UCX  WARN  object 0xa96ec40 was not returned to mpool ucp_requests
[1704049200.423695] [gra1211:168225:0]          mpool.c:42   UCX  WARN  object 0xa96ee00 was not returned to mpool ucp_requests
[1704049200.423702] [gra1211:168225:0]          mpool.c:42   UCX  WARN  object 0xa96efc0 was not returned to mpool ucp_requests
[1704049200.423708] [gra1211:168225:0]          mpool.c:42   UCX  WARN  object 0xa96f180 was not returned to mpool ucp_requests
[1704049200.423714] [gra1211:168225:0]          mpool.c:42   UCX  WARN  object 0xa96f340 was not returned to mpool ucp_requests
[1704049200.423729] [gra1211:168225:0]          mpool.c:42   UCX  WARN  object 0xa96f500 was not returned to mpool ucp_requests
[1704049200.423735] [gra1211:168225:0]          mpool.c:42   UCX  WARN  object 0xa96f6c0 was not returned to mpool ucp_requests
[1704049200.423742] [gra1211:168225:0]          mpool.c:42   UCX  WARN  object 0xa96f880 was not returned to mpool ucp_requests
[1704049200.423756] [gra1211:168225:0]          mpool.c:42   UCX  WARN  object 0xa96fa40 was not returned to mpool ucp_requests
[1704049200.423769] [gra1211:168225:0]          mpool.c:42   UCX  WARN  object 0xa96fc00 was not returned to mpool ucp_requests
[1704049200.423776] [gra1211:168225:0]          mpool.c:42   UCX  WARN  object 0xa96fdc0 was not returned to mpool ucp_requests
[1704049200.423782] [gra1211:168225:0]          mpool.c:42   UCX  WARN  object 0xa96ff80 was not returned to mpool ucp_requests
[1704049200.423788] [gra1211:168225:0]          mpool.c:42   UCX  WARN  object 0xa970140 was not returned to mpool ucp_requests
[1704049200.423894] [gra1211:168223:0]          mpool.c:42   UCX  WARN  object 0xa723400 was not returned to mpool ucp_requests
[1704049200.423917] [gra1211:168223:0]          mpool.c:42   UCX  WARN  object 0xa7235c0 was not returned to mpool ucp_requests
[1704049200.423933] [gra1211:168223:0]          mpool.c:42   UCX  WARN  object 0xa723780 was not returned to mpool ucp_requests
[1704049200.423940] [gra1211:168223:0]          mpool.c:42   UCX  WARN  object 0xa723940 was not returned to mpool ucp_requests
[1704049200.423946] [gra1211:168223:0]          mpool.c:42   UCX  WARN  object 0xa723b00 was not returned to mpool ucp_requests
[1704049200.423953] [gra1211:168223:0]          mpool.c:42   UCX  WARN  object 0xa723cc0 was not returned to mpool ucp_requests
[1704049200.423959] [gra1211:168223:0]          mpool.c:42   UCX  WARN  object 0xa723e80 was not returned to mpool ucp_requests
[1704049200.423965] [gra1211:168223:0]          mpool.c:42   UCX  WARN  object 0xa724040 was not returned to mpool ucp_requests
[1704049200.423971] [gra1211:168223:0]          mpool.c:42   UCX  WARN  object 0xa724200 was not returned to mpool ucp_requests
[1704049200.423978] [gra1211:168223:0]          mpool.c:42   UCX  WARN  object 0xa7243c0 was not returned to mpool ucp_requests
[1704049200.423985] [gra1211:168223:0]          mpool.c:42   UCX  WARN  object 0xa724580 was not returned to mpool ucp_requests
[1704049200.423993] [gra1211:168223:0]          mpool.c:42   UCX  WARN  object 0xa724740 was not returned to mpool ucp_requests
[1704049200.424007] [gra1211:168223:0]          mpool.c:42   UCX  WARN  object 0xa724900 was not returned to mpool ucp_requests
[1704049200.424014] [gra1211:168223:0]          mpool.c:42   UCX  WARN  object 0xa724ac0 was not returned to mpool ucp_requests
[1704049200.424020] [gra1211:168223:0]          mpool.c:42   UCX  WARN  object 0xa724c80 was not returned to mpool ucp_requests
[1704049200.424026] [gra1211:168223:0]          mpool.c:42   UCX  WARN  object 0xa724e40 was not returned to mpool ucp_requests
[1704049200.424032] [gra1211:168223:0]          mpool.c:42   UCX  WARN  object 0xa725000 was not returned to mpool ucp_requests
[1704049200.424038] [gra1211:168223:0]          mpool.c:42   UCX  WARN  object 0xa7251c0 was not returned to mpool ucp_requests


           ************************************************************
           *        Program running with 8 parallel MPI-processes     *
           *              working on a common directory               *
           ************************************************************
-------------------------------------------------------------------------------
                                 ORCA SCF
-------------------------------------------------------------------------------

------------
SCF SETTINGS
------------
Hamiltonian:
 Ab initio Hamiltonian  Method          .... Hartree-Fock(GTOs)


General Settings:
 Integral files         IntName         .... Fentanyl_OProt_38
 Hartree-Fock type      HFTyp           .... RHF
 Total Charge           Charge          ....    1
 Multiplicity           Mult            ....    1
 Number of Electrons    NEL             ....  182
 Basis Dimension        Dim             ....  949
 Nuclear Repulsion      ENuc            ....   2285.0882949925 Eh

Convergence Acceleration:
 DIIS                   CNVDIIS         .... on
   Start iteration      DIISMaxIt       ....    12
   Startup error        DIISStart       ....  0.200000
   # of expansion vecs  DIISMaxEq       ....     5
   Bias factor          DIISBfac        ....   1.050
   Max. coefficient     DIISMaxC        ....  10.000
 Trust-Rad. Augm. Hess. CNVTRAH         .... auto
   Auto Start mean grad. ratio tolernc. ....  1.125000
   Auto Start start iteration           ....    20
   Auto Start num. interpolation iter.  ....    10
   Max. Number of Micro iterations      ....    16
   Max. Number of Macro iterations      .... Maxiter - #DIIS iter
   Number of Davidson start vectors     ....     2
   Converg. threshold I  (grad. norm)   ....   2.000e-06
   Converg. threshold II (energy diff.) ....   1.000e-09
   Grad. Scal. Fac. for Micro threshold ....   0.100
   Minimum threshold for Micro iter.    ....   0.010
   NR start threshold (gradient norm)   ....   0.001
   Initial trust radius                 ....   0.400
   Minimum AH scaling param. (alpha)    ....   1.000
   Maximum AH scaling param. (alpha)    .... 1000.000
   Orbital update algorithm             .... Taylor
   White noise on init. David. guess    .... on
   Maximum white noise                  ....   0.010
   Quad. conv. algorithm                .... NR
 SOSCF                  CNVSOSCF        .... on
   Start iteration      SOSCFMaxIt      ....   150
   Startup grad/error   SOSCFStart      ....  0.003300
 Level Shifting         CNVShift        .... on
   Level shift para.    LevelShift      ....    0.2500
   Turn off err/grad.   ShiftErr        ....    0.0010
 Zerner damping         CNVZerner       .... off
 Static damping         CNVDamp         .... on
   Fraction old density DampFac         ....    0.7000
   Max. Damping (<1)    DampMax         ....    0.9800
   Min. Damping (>=0)   DampMin         ....    0.0000
   Turn off err/grad.   DampErr         ....    0.1000
 Fernandez-Rico         CNVRico         .... off

SCF Procedure:
 Maximum # iterations   MaxIter         ....   125
 SCF integral mode      SCFMode         .... Direct
   Integral package                     .... SHARK and LIBINT hybrid scheme
 Reset frequency        DirectResetFreq ....    20
 Integral Threshold     Thresh          ....  1.000e-12 Eh
 Primitive CutOff       TCut            ....  1.000e-14 Eh

Convergence Tolerance:
 Convergence Check Mode ConvCheckMode   .... Total+1el-Energy
 Convergence forced     ConvForced      .... 1
 Energy Change          TolE            ....  1.000e-09 Eh
 1-El. energy change                    ....  1.000e-06 Eh
 Orbital Gradient       TolG            ....  2.000e-06
 Orbital Rotation angle TolX            ....  2.000e-06
 DIIS Error             TolErr          ....  1.000e-08


Diagonalization of the overlap matrix:
Smallest eigenvalue                        ... 6.404e-06
Time for diagonalization                   ...    0.161 sec
Threshold for overlap eigenvalues          ... 1.000e-08
Number of eigenvalues below threshold      ... 0
Time for construction of square roots      ...    0.102 sec
Total time needed                          ...    0.268 sec

Time for model grid setup =    0.523 sec

------------------------------
INITIAL GUESS: MODEL POTENTIAL
------------------------------
Loading Hartree-Fock densities                     ... done
Calculating cut-offs                               ... done
Initializing the effective Hamiltonian             ... done
Setting up the integral package (SHARK)            ... done
Starting the Coulomb interaction                   ... done (   1.3 sec)
Reading the grid                                   ... done
Mapping shells                                     ... done
Starting the XC term evaluation                    ... done (   0.4 sec)
Transforming the Hamiltonian                       ... done (   0.1 sec)
Diagonalizing the Hamiltonian                      ... done (   0.2 sec)
Back transforming the eigenvectors                 ... done (   0.0 sec)
Now organizing SCF variables                       ... done
                      ------------------
                      INITIAL GUESS DONE (   2.6 sec)
                      ------------------
--------------
SCF ITERATIONS
--------------
ITER       Energy         Delta-E        Max-DP      RMS-DP      [F,P]     Damp
               ***  Starting incremental Fock matrix formation  ***
  0  -1032.8693446391   0.000000000000 0.03387363  0.00054059  0.2949345 0.7000
  1  -1033.2239971742  -0.354652535155 0.02544938  0.00043835  0.2190027 0.7000
                               ***Turning on DIIS***
  2  -1033.4434958474  -0.219498673157 0.01875910  0.00030308  0.1614955 0.7000
  3  -1036.1837142699  -2.740218422519 0.01565775  0.00022221  0.1180149 0.7000
  4  -1035.8167617386   0.366952531247 0.04507425  0.00058057  0.0834530 0.0000
  5  -1033.9997847901   1.816976948516 0.00734913  0.00007653  0.0047377 0.0000
                      *** Initiating the SOSCF procedure ***
                           *** Shutting down DIIS ***
                      *** Re-Reading the Fockian *** 
                      *** Removing any level shift *** 
ITER      Energy       Delta-E        Grad      Rot      Max-DP    RMS-DP
  6  -1033.92339258   0.0763922127  0.001148  0.001148  0.004178  0.000039
               *** Restarting incremental Fock matrix formation ***
  7  -1033.91086514   0.0125274350  0.000663  0.001436  0.001888  0.000020
  8  -1033.91089225  -0.0000271076  0.000240  0.000636  0.001920  0.000015
  9  -1033.91089981  -0.0000075606  0.000144  0.000223  0.000384  0.000004
 10  -1033.91090045  -0.0000006377  0.000053  0.000169  0.000198  0.000002
 11  -1033.91090062  -0.0000001682  0.000027  0.000143  0.000044  0.000001
 12  -1033.91090066  -0.0000000443  0.000010  0.000034  0.000033  0.000000
 13  -1033.91090067  -0.0000000065  0.000003  0.000009  0.000011  0.000000
 14  -1033.91090067  -0.0000000008  0.000002  0.000003  0.000004  0.000000
                  ***Gradient check signals convergence***
              ***Rediagonalizing the Fockian in SOSCF/NRSCF***

               *****************************************************
               *                     SUCCESS                       *
               *           SCF CONVERGED AFTER  15 CYCLES          *
               *****************************************************


----------------
TOTAL SCF ENERGY
----------------

Total Energy       :        -1033.91090067 Eh          -28134.14592 eV

Components:
Nuclear Repulsion  :         2285.08829499 Eh           62180.41370 eV
Electronic Energy  :        -3318.99919566 Eh          -90314.55962 eV
One Electron Energy:        -5925.13417059 Eh         -161231.09761 eV
Two Electron Energy:         2606.13497493 Eh           70916.53799 eV

Virial components:
Potential Energy   :        -2066.94057048 Eh          -56244.31233 eV
Kinetic Energy     :         1033.02966981 Eh           28110.16641 eV
Virial Ratio       :            2.00085305


---------------
SCF CONVERGENCE
---------------

  Last Energy change         ...   -1.3779e-10  Tolerance :   1.0000e-09
  Last MAX-Density change    ...    2.2415e-06  Tolerance :   1.0000e-08
  Last RMS-Density change    ...    2.4760e-08  Tolerance :   1.0000e-09
  Last Orbital Gradient      ...    2.9594e-07  Tolerance :   2.0000e-06
  Last Orbital Rotation      ...    5.3097e-07  Tolerance :   2.0000e-06

             **** THE GBW FILE WAS UPDATED (Fentanyl_OProt_38.gbw) ****
             **** DENSITY Fentanyl_OProt_38.scfp WAS UPDATED ****
             **** ENERGY FILE WAS UPDATED (Fentanyl_OProt_38.en.tmp) ****
             **** THE GBW FILE WAS UPDATED (Fentanyl_OProt_38.gbw) ****
             **** DENSITY Fentanyl_OProt_38.scfp WAS UPDATED ****
----------------
ORBITAL ENERGIES
----------------

  NO   OCC          E(Eh)            E(eV) 
   0   2.0000     -20.775653      -565.3342 
   1   2.0000     -15.782420      -429.4615 
   2   2.0000     -15.647372      -425.7866 
   3   2.0000     -11.547934      -314.2353 
   4   2.0000     -11.418435      -310.7114 
   5   2.0000     -11.413775      -310.5846 
   6   2.0000     -11.382281      -309.7276 
   7   2.0000     -11.367992      -309.3388 
   8   2.0000     -11.367460      -309.3243 
   9   2.0000     -11.362795      -309.1974 
  10   2.0000     -11.362684      -309.1943 
  11   2.0000     -11.360068      -309.1232 
  12   2.0000     -11.359853      -309.1173 
  13   2.0000     -11.355997      -309.0124 
  14   2.0000     -11.354590      -308.9741 
  15   2.0000     -11.354523      -308.9723 
  16   2.0000     -11.351898      -308.9009 
  17   2.0000     -11.348393      -308.8055 
  18   2.0000     -11.327687      -308.2420 
  19   2.0000     -11.323619      -308.1313 
  20   2.0000     -11.321914      -308.0850 
  21   2.0000     -11.318610      -307.9950 
  22   2.0000     -11.318283      -307.9861 
  23   2.0000     -11.316807      -307.9460 
  24   2.0000     -11.316362      -307.9339 
  25   2.0000      -1.621914       -44.1345 
  26   2.0000      -1.453902       -39.5627 
  27   2.0000      -1.353691       -36.8358 
  28   2.0000      -1.284313       -34.9479 
  29   2.0000      -1.247797       -33.9543 
  30   2.0000      -1.233278       -33.5592 
  31   2.0000      -1.192827       -32.4585 
  32   2.0000      -1.153453       -31.3871 
  33   2.0000      -1.151312       -31.3288 
  34   2.0000      -1.149230       -31.2722 
  35   2.0000      -1.144978       -31.1564 
  36   2.0000      -1.104204       -30.0469 
  37   2.0000      -1.084000       -29.4971 
  38   2.0000      -1.053584       -28.6695 
  39   2.0000      -1.012724       -27.5576 
  40   2.0000      -0.994326       -27.0570 
  41   2.0000      -0.988645       -26.9024 
  42   2.0000      -0.966973       -26.3127 
  43   2.0000      -0.965114       -26.2621 
  44   2.0000      -0.944433       -25.6993 
  45   2.0000      -0.916815       -24.9478 
  46   2.0000      -0.904099       -24.6018 
  47   2.0000      -0.879642       -23.9363 
  48   2.0000      -0.865978       -23.5645 
  49   2.0000      -0.848018       -23.0757 
  50   2.0000      -0.815277       -22.1848 
  51   2.0000      -0.807452       -21.9719 
  52   2.0000      -0.789081       -21.4720 
  53   2.0000      -0.777037       -21.1442 
  54   2.0000      -0.771575       -20.9956 
  55   2.0000      -0.766357       -20.8536 
  56   2.0000      -0.754841       -20.5403 
  57   2.0000      -0.747819       -20.3492 
  58   2.0000      -0.746650       -20.3174 
  59   2.0000      -0.739892       -20.1335 
  60   2.0000      -0.735865       -20.0239 
  61   2.0000      -0.729262       -19.8442 
  62   2.0000      -0.721512       -19.6333 
  63   2.0000      -0.719047       -19.5663 
  64   2.0000      -0.714619       -19.4458 
  65   2.0000      -0.692518       -18.8444 
  66   2.0000      -0.684588       -18.6286 
  67   2.0000      -0.674499       -18.3540 
  68   2.0000      -0.670936       -18.2571 
  69   2.0000      -0.662092       -18.0165 
  70   2.0000      -0.656711       -17.8700 
  71   2.0000      -0.651621       -17.7315 
  72   2.0000      -0.642573       -17.4853 
  73   2.0000      -0.641340       -17.4517 
  74   2.0000      -0.638548       -17.3758 
  75   2.0000      -0.634207       -17.2576 
  76   2.0000      -0.629063       -17.1177 
  77   2.0000      -0.622417       -16.9368 
  78   2.0000      -0.618328       -16.8256 
  79   2.0000      -0.608385       -16.5550 
  80   2.0000      -0.589074       -16.0295 
  81   2.0000      -0.587127       -15.9765 
  82   2.0000      -0.576254       -15.6807 
  83   2.0000      -0.570316       -15.5191 
  84   2.0000      -0.568873       -15.4798 
  85   2.0000      -0.561611       -15.2822 
  86   2.0000      -0.470590       -12.8054 
  87   2.0000      -0.468884       -12.7590 
  88   2.0000      -0.457418       -12.4470 
  89   2.0000      -0.429241       -11.6803 
  90   2.0000      -0.415953       -11.3186 
  91   0.0000      -0.022784        -0.6200 
  92   0.0000      -0.008628        -0.2348 
  93   0.0000       0.001664         0.0453 
  94   0.0000       0.015148         0.4122 
  95   0.0000       0.028400         0.7728 
  96   0.0000       0.034052         0.9266 
  97   0.0000       0.035003         0.9525 
  98   0.0000       0.035949         0.9782 
  99   0.0000       0.045592         1.2406 
 100   0.0000       0.048506         1.3199 
 101   0.0000       0.062602         1.7035 
 102   0.0000       0.066848         1.8190 
 103   0.0000       0.072272         1.9666 
 104   0.0000       0.075578         2.0566 
 105   0.0000       0.081283         2.2118 
 106   0.0000       0.084263         2.2929 
 107   0.0000       0.090463         2.4616 
 108   0.0000       0.094888         2.5820 
 109   0.0000       0.098751         2.6872 
 110   0.0000       0.100291         2.7290 
 111   0.0000       0.102739         2.7957 
 112   0.0000       0.108316         2.9474 
 113   0.0000       0.114241         3.1087 
 114   0.0000       0.117781         3.2050 
 115   0.0000       0.126206         3.4342 
 116   0.0000       0.126424         3.4402 
 117   0.0000       0.130919         3.5625 
 118   0.0000       0.132482         3.6050 
 119   0.0000       0.139535         3.7969 
 120   0.0000       0.150603         4.0981 
 121   0.0000       0.152365         4.1460 
 122   0.0000       0.156733         4.2649 
 123   0.0000       0.161655         4.3988 
 124   0.0000       0.168050         4.5729 
 125   0.0000       0.172293         4.6883 
 126   0.0000       0.180423         4.9096 
 127   0.0000       0.183980         5.0064 
 128   0.0000       0.187129         5.0920 
 129   0.0000       0.190385         5.1806 
 130   0.0000       0.194663         5.2971 
 131   0.0000       0.196626         5.3505 
 132   0.0000       0.203591         5.5400 
 133   0.0000       0.205231         5.5846 
 134   0.0000       0.209373         5.6973 
 135   0.0000       0.212220         5.7748 
 136   0.0000       0.222009         6.0412 
 137   0.0000       0.225427         6.1342 
 138   0.0000       0.227440         6.1890 
 139   0.0000       0.229084         6.2337 
 140   0.0000       0.234519         6.3816 
 141   0.0000       0.237339         6.4583 
 142   0.0000       0.240730         6.5506 
 143   0.0000       0.246789         6.7155 
 144   0.0000       0.247722         6.7409 
 145   0.0000       0.254133         6.9153 
 146   0.0000       0.256027         6.9669 
 147   0.0000       0.259704         7.0669 
 148   0.0000       0.269385         7.3303 
 149   0.0000       0.272090         7.4039 
 150   0.0000       0.275858         7.5065 
 151   0.0000       0.280252         7.6260 
 152   0.0000       0.285725         7.7750 
 153   0.0000       0.291544         7.9333 
 154   0.0000       0.293618         7.9898 
 155   0.0000       0.303168         8.2496 
 156   0.0000       0.308513         8.3951 
 157   0.0000       0.309826         8.4308 
 158   0.0000       0.312335         8.4991 
 159   0.0000       0.316378         8.6091 
 160   0.0000       0.321081         8.7371 
 161   0.0000       0.328742         8.9455 
 162   0.0000       0.332928         9.0594 
 163   0.0000       0.342801         9.3281 
 164   0.0000       0.348482         9.4827 
 165   0.0000       0.352792         9.6000 
 166   0.0000       0.359808         9.7909 
 167   0.0000       0.361646         9.8409 
 168   0.0000       0.369620        10.0579 
 169   0.0000       0.374873        10.2008 
 170   0.0000       0.378264        10.2931 
 171   0.0000       0.382392        10.4054 
 172   0.0000       0.387965        10.5571 
 173   0.0000       0.390533        10.6270 
 174   0.0000       0.394473        10.7342 
 175   0.0000       0.395519        10.7626 
 176   0.0000       0.403285        10.9739 
 177   0.0000       0.406773        11.0689 
 178   0.0000       0.407365        11.0850 
 179   0.0000       0.412120        11.2144 
 180   0.0000       0.418799        11.3961 
 181   0.0000       0.419750        11.4220 
 182   0.0000       0.424640        11.5550 
 183   0.0000       0.428918        11.6715 
 184   0.0000       0.431403        11.7391 
 185   0.0000       0.433654        11.8003 
 186   0.0000       0.437398        11.9022 
 187   0.0000       0.440332        11.9820 
 188   0.0000       0.443133        12.0583 
 189   0.0000       0.445801        12.1309 
 190   0.0000       0.449802        12.2397 
 191   0.0000       0.455789        12.4026 
 192   0.0000       0.456745        12.4287 
 193   0.0000       0.459465        12.5027 
 194   0.0000       0.466501        12.6941 
 195   0.0000       0.467950        12.7336 
 196   0.0000       0.469811        12.7842 
 197   0.0000       0.475655        12.9432 
 198   0.0000       0.479222        13.0403 
 199   0.0000       0.479680        13.0528 
 200   0.0000       0.482524        13.1301 
 201   0.0000       0.487729        13.2718 
 202   0.0000       0.489598        13.3226 
 203   0.0000       0.492958        13.4141 
 204   0.0000       0.497348        13.5335 
 205   0.0000       0.499848        13.6016 
 206   0.0000       0.501447        13.6451 
 207   0.0000       0.503718        13.7069 
 208   0.0000       0.508927        13.8486 
 209   0.0000       0.512010        13.9325 
 210   0.0000       0.518739        14.1156 
 211   0.0000       0.526432        14.3249 
 212   0.0000       0.528678        14.3861 
 213   0.0000       0.532130        14.4800 
 214   0.0000       0.533521        14.5178 
 215   0.0000       0.538143        14.6436 
 216   0.0000       0.539767        14.6878 
 217   0.0000       0.542957        14.7746 
 218   0.0000       0.543671        14.7940 
 219   0.0000       0.546233        14.8638 
 220   0.0000       0.548290        14.9197 
 221   0.0000       0.554586        15.0911 
 222   0.0000       0.556202        15.1350 
 223   0.0000       0.561745        15.2859 
 224   0.0000       0.567929        15.4541 
 225   0.0000       0.572269        15.5722 
 226   0.0000       0.576636        15.6911 
 227   0.0000       0.578021        15.7287 
 228   0.0000       0.583215        15.8701 
 229   0.0000       0.588069        16.0022 
 230   0.0000       0.590927        16.0799 
 231   0.0000       0.600997        16.3540 
 232   0.0000       0.602727        16.4010 
 233   0.0000       0.607804        16.5392 
 234   0.0000       0.610535        16.6135 
 235   0.0000       0.616446        16.7743 
 236   0.0000       0.624302        16.9881 
 237   0.0000       0.628684        17.1074 
 238   0.0000       0.635991        17.3062 
 239   0.0000       0.639722        17.4077 
 240   0.0000       0.642467        17.4824 
 241   0.0000       0.645210        17.5570 
 242   0.0000       0.647126        17.6092 
 243   0.0000       0.653901        17.7935 
 244   0.0000       0.659757        17.9529 
 245   0.0000       0.664405        18.0794 
 246   0.0000       0.678962        18.4755 
 247   0.0000       0.683235        18.5918 
 248   0.0000       0.687635        18.7115 
 249   0.0000       0.692828        18.8528 
 250   0.0000       0.699868        19.0444 
 251   0.0000       0.713445        19.4138 
 252   0.0000       0.722545        19.6614 
 253   0.0000       0.726435        19.7673 
 254   0.0000       0.739055        20.1107 
 255   0.0000       0.746081        20.3019 
 256   0.0000       0.748133        20.3577 
 257   0.0000       0.758168        20.6308 
 258   0.0000       0.771610        20.9966 
 259   0.0000       0.773536        21.0490 
 260   0.0000       0.777656        21.1611 
 261   0.0000       0.781290        21.2600 
 262   0.0000       0.783604        21.3229 
 263   0.0000       0.790558        21.5122 
 264   0.0000       0.796165        21.6648 
 265   0.0000       0.804218        21.8839 
 266   0.0000       0.809089        22.0164 
 267   0.0000       0.816410        22.2157 
 268   0.0000       0.820975        22.3399 
 269   0.0000       0.823153        22.3991 
 270   0.0000       0.824772        22.4432 
 271   0.0000       0.835556        22.7366 
 272   0.0000       0.837618        22.7928 
 273   0.0000       0.844323        22.9752 
 274   0.0000       0.851050        23.1582 
 275   0.0000       0.857461        23.3327 
 276   0.0000       0.862647        23.4738 
 277   0.0000       0.864387        23.5212 
 278   0.0000       0.876260        23.8442 
 279   0.0000       0.883150        24.0317 
 280   0.0000       0.890096        24.2207 
 281   0.0000       0.894396        24.3378 
 282   0.0000       0.897073        24.4106 
 283   0.0000       0.905082        24.6285 
 284   0.0000       0.907910        24.7055 
 285   0.0000       0.915667        24.9166 
 286   0.0000       0.918093        24.9826 
 287   0.0000       0.924927        25.1685 
 288   0.0000       0.939742        25.5717 
 289   0.0000       0.940531        25.5932 
 290   0.0000       0.945806        25.7367 
 291   0.0000       0.948957        25.8224 
 292   0.0000       0.954412        25.9709 
 293   0.0000       0.961986        26.1770 
 294   0.0000       0.963703        26.2237 
 295   0.0000       0.974208        26.5095 
 296   0.0000       0.977203        26.5910 
 297   0.0000       0.983102        26.7516 
 298   0.0000       0.990088        26.9417 
 299   0.0000       1.000448        27.2236 
 300   0.0000       1.007366        27.4118 
 301   0.0000       1.012204        27.5435 
 302   0.0000       1.018077        27.7033 
 303   0.0000       1.022653        27.8278 
 304   0.0000       1.030332        28.0368 
 305   0.0000       1.035112        28.1668 
 306   0.0000       1.043844        28.4045 
 307   0.0000       1.047237        28.4968 
 308   0.0000       1.056720        28.7548 
 309   0.0000       1.063159        28.9300 
 310   0.0000       1.064426        28.9645 
 311   0.0000       1.075713        29.2716 
 312   0.0000       1.081893        29.4398 
 313   0.0000       1.087347        29.5882 
 314   0.0000       1.095010        29.7967 
 315   0.0000       1.096658        29.8416 
 316   0.0000       1.114384        30.3239 
 317   0.0000       1.122346        30.5406 
 318   0.0000       1.123518        30.5725 
 319   0.0000       1.129083        30.7239 
 320   0.0000       1.134186        30.8628 
 321   0.0000       1.146063        31.1860 
 322   0.0000       1.161891        31.6167 
 323   0.0000       1.165986        31.7281 
 324   0.0000       1.177726        32.0475 
 325   0.0000       1.182503        32.1775 
 326   0.0000       1.183001        32.1911 
 327   0.0000       1.191692        32.4276 
 328   0.0000       1.199153        32.6306 
 329   0.0000       1.205228        32.7959 
 330   0.0000       1.211924        32.9781 
 331   0.0000       1.214529        33.0490 
 332   0.0000       1.227527        33.4027 
 333   0.0000       1.231169        33.5018 
 334   0.0000       1.236437        33.6452 
 335   0.0000       1.245737        33.8982 
 336   0.0000       1.248548        33.9747 
 337   0.0000       1.253815        34.1180 
 338   0.0000       1.265205        34.4280 
 339   0.0000       1.268388        34.5146 
 340   0.0000       1.278641        34.7936 
 341   0.0000       1.284866        34.9630 
 342   0.0000       1.287370        35.0311 
 343   0.0000       1.292941        35.1827 
 344   0.0000       1.299699        35.3666 
 345   0.0000       1.307980        35.5920 
 346   0.0000       1.318108        35.8675 
 347   0.0000       1.325222        36.0611 
 348   0.0000       1.332438        36.2575 
 349   0.0000       1.341025        36.4912 
 350   0.0000       1.345189        36.6045 
 351   0.0000       1.348015        36.6813 
 352   0.0000       1.351878        36.7865 
 353   0.0000       1.360892        37.0318 
 354   0.0000       1.373137        37.3649 
 355   0.0000       1.374140        37.3922 
 356   0.0000       1.380695        37.5706 
 357   0.0000       1.386883        37.7390 
 358   0.0000       1.391497        37.8646 
 359   0.0000       1.392480        37.8913 
 360   0.0000       1.396436        37.9989 
 361   0.0000       1.407992        38.3134 
 362   0.0000       1.409612        38.3575 
 363   0.0000       1.413886        38.4738 
 364   0.0000       1.422141        38.6984 
 365   0.0000       1.437133        39.1064 
 366   0.0000       1.440278        39.1920 
 367   0.0000       1.447037        39.3759 
 368   0.0000       1.452245        39.5176 
 369   0.0000       1.458230        39.6805 
 370   0.0000       1.465232        39.8710 
 371   0.0000       1.473641        40.0998 
 372   0.0000       1.485376        40.4191 
 373   0.0000       1.488560        40.5058 
 374   0.0000       1.496997        40.7354 
 375   0.0000       1.503483        40.9119 
 376   0.0000       1.517355        41.2893 
 377   0.0000       1.531093        41.6632 
 378   0.0000       1.539220        41.8843 
 379   0.0000       1.554735        42.3065 
 380   0.0000       1.556625        42.3579 
 381   0.0000       1.564014        42.5590 
 382   0.0000       1.572608        42.7928 
 383   0.0000       1.579933        42.9922 
 384   0.0000       1.590739        43.2862 
 385   0.0000       1.600337        43.5474 
 386   0.0000       1.604202        43.6526 
 387   0.0000       1.609149        43.7872 
 388   0.0000       1.627482        44.2860 
 389   0.0000       1.634274        44.4709 
 390   0.0000       1.639116        44.6026 
 391   0.0000       1.643134        44.7120 
 392   0.0000       1.648929        44.8696 
 393   0.0000       1.660253        45.1778 
 394   0.0000       1.661813        45.2202 
 395   0.0000       1.672629        45.5145 
 396   0.0000       1.678901        45.6852 
 397   0.0000       1.684471        45.8368 
 398   0.0000       1.689320        45.9687 
 399   0.0000       1.697647        46.1953 
 400   0.0000       1.705188        46.4005 
 401   0.0000       1.710148        46.5355 
 402   0.0000       1.716347        46.7042 
 403   0.0000       1.720405        46.8146 
 404   0.0000       1.727600        47.0104 
 405   0.0000       1.734309        47.1929 
 406   0.0000       1.744269        47.4640 
 407   0.0000       1.749227        47.5989 
 408   0.0000       1.756431        47.7949 
 409   0.0000       1.759756        47.8854 
 410   0.0000       1.764257        48.0079 
 411   0.0000       1.766979        48.0819 
 412   0.0000       1.773873        48.2695 
 413   0.0000       1.777006        48.3548 
 414   0.0000       1.780361        48.4461 
 415   0.0000       1.794117        48.8204 
 416   0.0000       1.797835        48.9216 
 417   0.0000       1.800928        49.0057 
[...]
sum of PNO error estimates for the kept pairs         ...      -0.012113100624 Eh
                                                          --------------------
sum of all corrections                                         -0.035423334527
Initial total correlation energy                               -3.984164841239
Thresholds for map construction and integral transformation for fine MP2 and CCSD(T) calculation:
   TCutMKN   ...     1.0e-03
   TCutDO    ...     1.0e-02
   TCutPairs ...     1.0e-04
   TCutCMO   ...     1.0e-03
   TCutCPAO  ...     1.0e-03

Thresholds for map construction and integral transformation for strong Triples:
   TCutMKN   ...     1.0e-02
   TCutDO    ...     2.0e-02
   TCutCMO   ...     1.0e-03
   TCutCPAO  ...     1.0e-03

Thresholds for map construction and integral transformation for weak Triples:
   TCutMKN   ...     1.0e-01
   TCutDO    ...     4.0e-02
   TCutCMO   ...     1.0e-03
   TCutCPAO  ...     1.0e-03

--------------------------------
LOCAL RI TRANSFORMATION (IAVPAO)
--------------------------------

Orbital window:      25 to 90
Number of PAOs:     949
Basis functions:    949 (391 shells)
Aux. functions:    2335 (753 shells)
Use SHARK:           on

Processing maps (0.0 sec)
Average map sizes:
   Aux shells -> MOs              54.9
   Aux shells -> PAOs            949.0
   MOs        -> AO shells       332.3
   PAOs       -> AO shells       380.3

Calculating integrals (8.5 sec, 941.815 MB)
Sorting integrals (1.9 sec, 935.916 MB)
Total time for the integral transformation: 10.7 sec
--------------------------------
INITIAL GUESS AND PNO GENERATION
--------------------------------

PNO truncation parameters                   .... 
    PAOOverlapThresh   =        1.000e-08

    TCutPairs          =        1.000e-04
    TCutPNO            =        3.330e-07
    TCutPNOSingles     =        9.990e-09
    TCutMP2Pairs       =        1.000e-05
    TCutMKN            =        1.000e-03
    TCutDO             =        1.000e-02

Pair selection                          .... not used
Type of local MP2 treatment                 .... semi-local MP2
Strategy for PNO selection                  .... occupation number selection
Pair density normalization                  .... MP2 norm
Spin component scaling                      .... not used

   .... Finished loop over pairs

 PNO Occupation Number Statistics: 
  | Av. % of trace(Dij) retained        ...  97.506526373441
  | sigma^2 in % of trace(Dij) retained ...   5.43e+00
  | Av. % of trace(Di) retained         ...  99.999028160264
  | sigma^2 in % of trace(Di) retained  ...   1.05e-07
 Distributions of % trace(Dij) recovered:
  |       >= 99.9  ...   206 ( 15.5 % of all pairs)
  |   [80.0, 90.0) ...    13 (  1.0 % of all pairs)
  |   [90.0, 99.0) ...   835 ( 62.8 % of all pairs)
  |   [99.0, 99.9) ...   275 ( 20.7 % of all pairs)
 Distributions of % trace(Di) recovered :
  |       >= 99.9  ...    66 (100.0 % of all I-pairs )

Making pair pair interaction lists          ... done

                       ===========================
                        746 OF 1329 PAIRS ARE KEPT
                       ===========================

Total time spent in the initial guess                 ...    64.650 sec
SL-MP2 correlation energy (all non-screened pairs)    ...      -3.986019933381 Eh

Initial PNO correlation energy                        ...      -3.952914547132 Eh
sum of pair energies estimated for screened out pairs ...      -0.002532764059 Eh
sum of MP2 pair energies for pairs that were not kept ...      -0.020875551591 Eh
sum of PNO error estimates for the kept pairs         ...      -0.012229834658 Eh
                                                          --------------------
sum of all corrections                                         -0.035638150308
Initial total correlation energy                               -3.988552697440
Thresholds for map construction and integral transformation for fine MP2 and CCSD(T) calculation:
   TCutMKN   ...     1.0e-03
   TCutDO    ...     1.0e-02
   TCutPairs ...     1.0e-04
   TCutCMO   ...     1.0e-03
   TCutCPAO  ...     1.0e-03

Time for aux screen maps:            0.010
Time for maps after fine MP2:            0.078
-----------------------------
LOCAL RI TRANSFORMATION (IJV)
-----------------------------

Orbital window:      25 to 90
Basis functions:    949 (391 shells)
Aux. functions:    2335 (753 shells)
Use SHARK:           on

Processing maps (0.0 sec)
Average map sizes:
   Aux shells -> MOs(i)           45.1
   Aux shells -> MOs(j)           66.0
   MOs        -> AO shells       332.3

Calculating integrals (7.5 sec, 54.115 MB)
Sorting integrals (0.1 sec, 54.090 MB)
Total time for the integral transformation: 7.7 sec
--------------------------------
LOCAL RI TRANSFORMATION (VABPAO)
--------------------------------

Number of PAOs:     949
Basis functions:    949 (391 shells)
Aux. functions:    2335 (753 shells)
Use SHARK:           on

Processing maps (0.0 sec)
Average map sizes:
   Aux shells -> PAOs            882.1
   PAOs       -> AO shells       380.3

Calculating integrals (28.3 sec, 14260.271 MB)
Finished


-------------------------------------
Pair Pair Term precalculation with     
RI-(ij|mn) and (im|jn) transformation  
ON THE FLY                             
-------------------------------------

   IBatch   1 (of   8)              ... done (   38.117 sec)
   IBatch   2 (of   8)              ... done (   47.472 sec)
   IBatch   3 (of   8)              ... done (   66.151 sec)
   IBatch   4 (of   8)              ... done (   45.698 sec)
   IBatch   5 (of   8)              ... done (   59.191 sec)
   IBatch   6 (of   8)              ... done (   87.697 sec)
   IBatch   7 (of   8)              ... done (   90.896 sec)
   IBatch   8 (of   8)              ... done (   93.859 sec)
Total EXT                           ...         529.085 sec

---------------------
RI-PNO TRANSFORMATION
---------------------

Total Number of PNOs                   ... 23425
Average number of PNOs per pair        ...    31
Maximal number of PNOs per pair        ...    80
   #pairs with  1 -  5 PNOs   :    0
   #pairs with  6 - 10 PNOs   :   35
   #pairs with 11 - 15 PNOs   :  109
   #pairs with 16 - 20 PNOs   :  108
   #pairs with 21 - 25 PNOs   :   47
   #pairs with 26 - 30 PNOs   :   78
   #pairs with 31 - 35 PNOs   :  103
   #pairs with 36 - 40 PNOs   :   55
   #pairs with 41 - 45 PNOs   :   57
   #pairs with 46 - 50 PNOs   :   80
   #pairs with 51 - 55 PNOs   :    9
   #pairs with 56 - 60 PNOs   :   23
   #pairs with 61 - 65 PNOs   :   12
   #pairs with 71 - 75 PNOs   :   24
   #pairs with 76 - 80 PNOs   :    6

Generation of (ij|ab)[P] integrals            ... on
Generation of (ia|bc)[P],(ja|bc)[P] integrals ... on
Storage of 3 and 4 external integrals         ... on
Generation of ALL (ka|bc)[P] integrals        ... on
Keep RI integrals in memory                   ... off

Ibatch:  1 (of  1)
Starting 2-4 index PNO integral generation ... done

Timings:
Total PNO integral transformation time     ...        225.975 sec
Size of the 3-external file                ...       343 MB
Size of the 4-external file                ...      2332 MB
Size of the IKJL file                      ...         0 MB
Size of the all 3-external file            ...      8801 MB
Size of the 1-external file                ...        28 MB

Making pair/pair overlap matrices          ... done (   62.364 sec)
Size of the pair overlap file              ... 2634 MB
Redoing the guess amplitudes               ... done (    0.058 sec)

-------------------------
FINAL STARTUP INFORMATION
-------------------------

E(0)                                       ...  -1033.910900669
E(SL-MP2)                                  ...     -3.986019933
E(SL-MP2) including corrections            ...     -3.988552697
Initial E(tot)                             ...  -1037.899453366
<T|T>                                      ...      1.173801309
Number of pairs included                   ... 746
Total number of pairs                      ... 2211

------------------------------------------------
                  RHF COUPLED CLUSTER ITERATIONS
------------------------------------------------

Number of PNO amplitudes to be optimized   ...       934067
Number of non-PNO amplitudes               ...    549178344
Untruncated number of regular amplitudes   ...   1627658604

Iter       E(tot)           E(Corr)          Delta-E          Residual     Time
  0  -1037.899637552     -3.953098732      0.032921201      0.016907807   57.22
                           *** Turning on DIIS ***
  1  -1038.062303826     -4.115765007     -0.162666274      0.008573699   51.50
  2  -1038.167319940     -4.220781121     -0.105016115      0.004154300   50.03
  3  -1038.185231588     -4.238692769     -0.017911647      0.002261109   54.61
  4  -1038.190165855     -4.243627036     -0.004934268      0.001314008   54.49
  5  -1038.191657474     -4.245118655     -0.001491619      0.000688340   52.75
  6  -1038.192114734     -4.245575915     -0.000457260      0.000264980   54.14
  7  -1038.192150455     -4.245611636     -0.000035721      0.000123226   52.75
  8  -1038.192164586     -4.245625767     -0.000014131      0.000064296   53.12
  9  -1038.192149351     -4.245610531      0.000015236      0.000037402   55.48
 10  -1038.192152922     -4.245614103     -0.000003572      0.000014968   58.01
 11  -1038.192151706     -4.245612886      0.000001216      0.000004486   58.46
 12  -1038.192152245     -4.245613426     -0.000000540      0.000001526   58.53
 13  -1038.192151936     -4.245613117      0.000000309      0.000000954   58.78
               --- The Coupled-Cluster iterations have converged ---

----------------------
COUPLED CLUSTER ENERGY
----------------------

E(0)                                       ...  -1033.910900669
E(CORR)(strong-pairs)                      ...     -4.245613117
E(CORR)(weak-pairs)                        ...     -0.035638150
E(CORR)(corrected)                         ...     -4.281251267
E(TOT)                                     ...  -1038.192151936
Singles Norm <S|S>**1/2                    ...      0.118685328  
T1 diagnostic                              ...      0.010330232  

------------------
LARGEST AMPLITUDES
------------------
  40-> 91  40-> 91       0.046912
  37-> 93  37-> 93       0.046706
  35-> 91  35-> 91       0.046403
  28-> 92  28-> 92       0.046048
  42-> 93  42-> 93       0.046027
  83-> 95  83-> 95       0.045266
  39-> 91  39-> 91       0.044982
  86-> 95  86-> 95       0.044881
  84-> 95  84-> 95       0.044873
  33-> 91  33-> 91       0.044842
  31-> 91  31-> 91       0.044797
  82-> 95  82-> 95       0.044766
  87-> 95  87-> 95       0.044572
  90-> 91  90-> 91       0.043781
  88-> 95  88-> 95       0.043634
  89-> 95  89-> 95       0.042864


-------------------------------------------
DLPNO BASED TRIPLES CORRECTION
-------------------------------------------

Singles multiplier          ...  1.000000
TCutTNO                     ... 1.000e-09
TCutMP2Pairs                ... 1.000e-05
TCutDOStrong                ... 2.000e-02
TCutMKNStrong               ... 1.000e-02
TCutDOWeak                  ... 4.000e-02
TCutMKNWeak                 ... 1.000e-01

Fragment selection                          .... not used
Fock matrix occ-virt block is zero --> Setting DT_in_Triples to false.
Number of Triples that are to be computed   ...      8428

 . . . . . . . . .             (    110.785 sec)
 . . . . . . . . .
10% done  
20% done               (    133.348 sec)
 . . . . . . . . .
30% done  
40% done               (    162.555 sec)
 . . . . . . . . .
50% done  
60% done               (    200.044 sec)
 . . . . . . . . .
70% done  
80% done  
90% done               (    172.494 sec)
Triples timings:
Total time for T0               ...   839.217 sec
Total time for Iterative (T)    ...     0.000 sec
Total time of overall (T)       ...  1422.200 sec

Triples List generation         ...     0.000 sec
TNO generation                  ...    59.880 sec
Pair density generation         ...     0.031 sec
Look up tables                  ...     0.000 sec
Generating 3-index integrals    ...   529.420 sec
  Make 4-ind.int. from 3-ind.int...    48.779 sec
  Projecting amplitudes (D + S) ...   155.921 sec
  Downprojecting integrals      ...     0.009 sec
  Energy contr. (sum over a,b,c)...     9.743 sec
Fitting ET(->0)                 ...     0.000 sec

Everything after 3-index        ...   249.805 sec

Timing details:
 TNO integrals                  ...   571.875 sec
   Reading 3-index integrals    ...    57.389 sec
   Sorting integrals            ...   109.468 sec
       Sorting integrals 1      ...     0.006 sec
       Sorting integrals 2      ...    91.512 sec
       Sorting integrals 3      ...     3.985 sec
       Sorting integrals 4      ...     0.506 sec
       Sorting integrals 5      ...     1.119 sec
       Sorting integrals 6      ...    12.339 sec
   Calculating local VM**-1/2   ...     2.967 sec
   Orthogonal. integrals        ...     6.619 sec
   Multipl. 3-index integrals   ...   395.431 sec
   All concerning IRIab (w/TNO) ...    24.687 sec

 Calculate W0/W1                ...    35.311 sec
 W 3-ext contribution           ...    17.221 sec
 W 3-int contribution           ...     7.469 sec
 Sorting W                      ...     9.287 sec

 V exchange contribution        ...     2.923 sec

 Timings for Triples without generation
     of 3-index integrals       ...   249.786 sec
       0 weak pairs             ...   174.640 sec
       1 weak pair              ...    75.145 sec
       2 weak pairs             ...     0.000 sec
       3 weak pairs             ...     0.000 sec
  Extra time for extrapolation  ...     0.000 sec

Number of Triples   (0, 1, 2, 3 weak pairs; overall):   4639    3789       0       0  (  8428)
Number of Atoms     (0, 1, 2, 3 weak pairs; overall):   18.2    14.9     0.0     0.0  (    54)
Number of PAOs      (0, 1, 2, 3 weak pairs; overall):  383.4   333.1     0.0     0.0  (   949)
Number of AuxFcns   (0, 1, 2, 3 weak pairs; overall):  470.1   354.0     0.0     0.0  (  2335)
Number of TNOs      (0, 1, 2, 3 weak pairs         ):   85.5    56.9     0.0     0.0
Aver. Number of NTNO, Atoms, PAOs, AuxFcns / Triples:   8428    72.6    16.7   360.8   417.9

Triples Correction (T)                     ...     -0.193203485
Final correlation energy                   ...     -4.474454752
E(CCSD)                                    ...  -1038.192151936
E(CCSD(T))                                 ...  -1038.385355421



--------------------------------------------------------------------------------
                                    TIMINGS
--------------------------------------------------------------------------------


Total execution time                   ...     3612.698 sec

Localization of occupied MO's          ...        5.425 sec (  0.2%)
Fock Matrix Formation                  ...      333.297 sec (  9.2%)
Global overlap, Fock, MKN matrices     ...        1.598 sec (  0.0%)
Differential overlap integrals         ...        5.095 sec (  0.1%)
Organizing maps                        ...        0.208 sec (  0.0%)
RI 3-index integral generations        ...       58.639 sec (  1.6%)
RI-PNO integral transformation         ...      903.551 sec ( 25.0%)
Initial Guess                          ...      111.694 sec (  3.1%)
DIIS Solver                            ...        1.897 sec (  0.1%)
State Vector Update                    ...        0.096 sec (  0.0%)
Sigma-vector construction              ...      767.881 sec ( 21.3%)
  <0|H|D>                              ...        0.002 sec (  0.0% of sigma)
  <D|H|D>(0-ext)                       ...       38.820 sec (  5.1% of sigma)
  <D|H|D>(2-ext Fock)                  ...        0.171 sec (  0.0% of sigma)
  <D|H|D>(2-ext)                       ...       71.031 sec (  9.3% of sigma)
  <D|H|D>(4-ext)                       ...       39.123 sec (  5.1% of sigma)
  <D|H|D>(4-ext-corr)                  ...      214.366 sec ( 27.9% of sigma)
  CCSD doubles correction              ...        1.174 sec (  0.2% of sigma)
  <S|H|S>                              ...        7.511 sec (  1.0% of sigma)
  <S|H|D>(1-ext)                       ...        5.366 sec (  0.7% of sigma)
  <D|H|S>(1-ext)                       ...        0.454 sec (  0.1% of sigma)
  <S|H|D>(3-ext)                       ...        2.661 sec (  0.3% of sigma)
  CCSD singles correction              ...        0.008 sec (  0.0% of sigma)
  Fock-dressing                        ...      197.641 sec ( 25.7% of sigma)
  Singles amplitudes                   ...        6.022 sec (  0.8% of sigma)
  (ik|jl)-dressing                     ...       34.105 sec (  4.4% of sigma)
  (ij|ab),(ia|jb)-dressing             ...       12.314 sec (  1.6% of sigma)
  Pair energies                        ...        0.052 sec (  0.0% of sigma)
Total Time for computing (T)           ...     1422.223 sec ( 39.4% of ALL)


Maximum memory used throughout the entire MDCI-calculation: 3447.8 MB

-------------------------   --------------------
FINAL SINGLE POINT ENERGY     -1038.385355421283
-------------------------   --------------------


                            ***************************************
                            *     ORCA property calculations      *
                            ***************************************


  WARNING: The energy has been calculated at the MDCI level but the densities
           used in the property calculations are still SCF densities
           MDCI response densities have not been calculated 
           use %mdci Density linearized end
           or  %mdci Density unrelaxed end
           or  %mdci Density orbopt end

                                    ---------------------
                                    Active property flags
                                    ---------------------
   (+) Dipole Moment


------------------------------------------------------------------------------
                       ORCA ELECTRIC PROPERTIES CALCULATION
------------------------------------------------------------------------------

Dipole Moment Calculation                       ... on
Quadrupole Moment Calculation                   ... off
Polarizability Calculation                      ... off
GBWName                                         ... Fentanyl_OProt_38.gbw
Electron density                                ... Fentanyl_OProt_38.scfp
The origin for moment calculation is the CENTER OF MASS  = ( 0.011343, -0.004617 -0.011308)

-------------
DIPOLE MOMENT
-------------
                                X             Y             Z
Electronic contribution:      4.11410      -3.92798      -1.81659
Nuclear contribution   :     -1.70179       3.78059       1.58350
                        -----------------------------------------
Total Dipole Moment    :      2.41231      -0.14739      -0.23309
                        -----------------------------------------
Magnitude (a.u.)       :      2.42802
Magnitude (Debye)      :      6.17154



--------------------
Rotational spectrum 
--------------------
 
Rotational constants in cm-1:     0.013731     0.004609     0.003952 
Rotational constants in MHz :   411.648659   138.171881   118.475935 

 Dipole components along the rotational axes: 
x,y,z [a.u.] :     2.425413     0.018919     0.110932 
x,y,z [Debye]:     6.164909     0.048088     0.281967 

 

Timings for individual modules:

Sum of individual times         ...     6309.428 sec (= 105.157 min)
GTO integral calculation        ...        3.072 sec (=   0.051 min)   0.0 %
SCF iterations                  ...     2690.936 sec (=  44.849 min)  42.6 %
MDCI module                     ...     3615.420 sec (=  60.257 min)  57.3 %
                             ****ORCA TERMINATED NORMALLY****
TOTAL RUN TIME: 0 days 1 hours 45 minutes 12 seconds 26 msec
