
Lmod is automatically replacing "intel/2020.1.217" with "gcc/10.3.0".


The following have been reloaded with a version change:
  1) gcccore/.9.3.0 => gcccore/.10.3.0        3) openmpi/4.0.3 => openmpi/4.1.1
  2) libfabric/1.10.1 => libfabric/1.12.1     4) ucx/1.8.0 => ucx/1.9.0

To execute ORCA, run: 
   ${EBROOTORCA}/orca orca.inp > orca.out
cp: cannot stat '/project/6006388/cieritan/Fentanyl_analogs/Fentanyl/O-Prot/CCSDT/*.hess': No such file or directory
cp: cannot stat '/project/6006388/cieritan/Fentanyl_analogs/Fentanyl/O-Prot/CCSDT/*.gbw': No such file or directory

                                 *****************
                                 * O   R   C   A *
                                 *****************

                                            #,                                       
                                            ###                                      
                                            ####                                     
                                            #####                                    
                                            ######                                   
                                           ########,                                 
                                     ,,################,,,,,                         
                               ,,#################################,,                 
                          ,,##########################################,,             
                       ,#########################################, ''#####,          
                    ,#############################################,,   '####,        
                  ,##################################################,,,,####,       
                ,###########''''           ''''###############################       
              ,#####''   ,,,,##########,,,,          '''####'''          '####       
            ,##' ,,,,###########################,,,                        '##       
           ' ,,###''''                  '''############,,,                           
         ,,##''                                '''############,,,,        ,,,,,,###''
      ,#''                                            '''#######################'''  
     '                                                          ''''####''''         
             ,#######,   #######,   ,#######,      ##                                
            ,#'     '#,  ##    ##  ,#'     '#,    #''#        ######   ,####,        
            ##       ##  ##   ,#'  ##            #'  '#       #        #'  '#        
            ##       ##  #######   ##           ,######,      #####,   #    #        
            '#,     ,#'  ##    ##  '#,     ,#' ,#      #,         ##   #,  ,#        
             '#######'   ##     ##  '#######'  #'      '#     #####' # '####'        



                  #######################################################
                  #                        -***-                        #
                  #          Department of theory and spectroscopy      #
                  #    Directorship and core code : Frank Neese         #
                  #        Max Planck Institute fuer Kohlenforschung    #
                  #                Kaiser Wilhelm Platz 1               #
                  #                 D-45470 Muelheim/Ruhr               #
                  #                      Germany                        #
                  #                                                     #
                  #                  All rights reserved                #
                  #                        -***-                        #
                  #######################################################


                         Program Version 5.0.4 -  RELEASE  -


 With contributions from (in alphabetic order):
   Daniel Aravena         : Magnetic Suceptibility
   Michael Atanasov       : Ab Initio Ligand Field Theory (pilot matlab implementation)
   Alexander A. Auer      : GIAO ZORA, VPT2 properties, NMR spectrum
   Ute Becker             : Parallelization
   Giovanni Bistoni       : ED, misc. LED, open-shell LED, HFLD
   Martin Brehm           : Molecular dynamics
   Dmytro Bykov           : SCF Hessian
   Vijay G. Chilkuri      : MRCI spin determinant printing, contributions to CSF-ICE
   Dipayan Datta          : RHF DLPNO-CCSD density
   Achintya Kumar Dutta   : EOM-CC, STEOM-CC
   Dmitry Ganyushin       : Spin-Orbit,Spin-Spin,Magnetic field MRCI
   Miquel Garcia          : C-PCM and meta-GGA Hessian, CC/C-PCM, Gaussian charge scheme
   Yang Guo               : DLPNO-NEVPT2, F12-NEVPT2, CIM, IAO-localization
   Andreas Hansen         : Spin unrestricted coupled pair/coupled cluster methods
   Benjamin Helmich-Paris : MC-RPA, TRAH-SCF, COSX integrals
   Lee Huntington         : MR-EOM, pCC
   Robert Izsak           : Overlap fitted RIJCOSX, COSX-SCS-MP3, EOM
   Marcus Kettner         : VPT2
   Christian Kollmar      : KDIIS, OOCD, Brueckner-CCSD(T), CCSD density, CASPT2, CASPT2-K
   Simone Kossmann        : Meta GGA functionals, TD-DFT gradient, OOMP2, MP2 Hessian
   Martin Krupicka        : Initial AUTO-CI
   Lucas Lang             : DCDCAS
   Marvin Lechner         : AUTO-CI (C++ implementation), FIC-MRCC
   Dagmar Lenk            : GEPOL surface, SMD
   Dimitrios Liakos       : Extrapolation schemes; Compound Job, initial MDCI parallelization
   Dimitrios Manganas     : Further ROCIS development; embedding schemes
   Dimitrios Pantazis     : SARC Basis sets
   Anastasios Papadopoulos: AUTO-CI, single reference methods and gradients
   Taras Petrenko         : DFT Hessian,TD-DFT gradient, ASA, ECA, R-Raman, ABS, FL, XAS/XES, NRVS
   Peter Pinski           : DLPNO-MP2, DLPNO-MP2 Gradient
   Christoph Reimann      : Effective Core Potentials
   Marius Retegan         : Local ZFS, SOC
   Christoph Riplinger    : Optimizer, TS searches, QM/MM, DLPNO-CCSD(T), (RO)-DLPNO pert. Triples
   Tobias Risthaus        : Range-separated hybrids, TD-DFT gradient, RPA, STAB
   Michael Roemelt        : Original ROCIS implementation
   Masaaki Saitow         : Open-shell DLPNO-CCSD energy and density
   Barbara Sandhoefer     : DKH picture change effects
   Avijit Sen             : IP-ROCIS
   Kantharuban Sivalingam : CASSCF convergence, NEVPT2, FIC-MRCI
   Bernardo de Souza      : ESD, SOC TD-DFT
   Georgi Stoychev        : AutoAux, RI-MP2 NMR, DLPNO-MP2 response
   Willem Van den Heuvel  : Paramagnetic NMR
   Boris Wezisla          : Elementary symmetry handling
   Frank Wennmohs         : Technical directorship


 We gratefully acknowledge several colleagues who have allowed us to
 interface, adapt or use parts of their codes:
   Stefan Grimme, W. Hujo, H. Kruse, P. Pracht,  : VdW corrections, initial TS optimization,
                  C. Bannwarth, S. Ehlert          DFT functionals, gCP, sTDA/sTD-DF
   Ed Valeev, F. Pavosevic, A. Kumar             : LibInt (2-el integral package), F12 methods
   Garnet Chan, S. Sharma, J. Yang, R. Olivares  : DMRG
   Ulf Ekstrom                                   : XCFun DFT Library
   Mihaly Kallay                                 : mrcc  (arbitrary order and MRCC methods)
   Jiri Pittner, Ondrej Demel                    : Mk-CCSD
   Frank Weinhold                                : gennbo (NPA and NBO analysis)
   Christopher J. Cramer and Donald G. Truhlar   : smd solvation model
   Lars Goerigk                                  : TD-DFT with DH, B97 family of functionals
   V. Asgeirsson, H. Jonsson                     : NEB implementation
   FAccTs GmbH                                   : IRC, NEB, NEB-TS, DLPNO-Multilevel, CI-OPT
                                                   MM, QMMM, 2- and 3-layer-ONIOM, Crystal-QMMM,
                                                   LR-CPCM, SF, NACMEs, symmetry and pop. for TD-DFT,
                                                   nearIR, NL-DFT gradient (VV10), updates on ESD,
                                                   ML-optimized integration grids
   S Lehtola, MJT Oliveira, MAL Marques          : LibXC Library
   Liviu Ungur et al                             : ANISO software


 Your calculation uses the libint2 library for the computation of 2-el integrals
 For citations please refer to: http://libint.valeyev.net

 Your ORCA version has been built with support for libXC version: 5.1.0
 For citations please refer to: https://tddft.org/programs/libxc/

 This ORCA versions uses:
   CBLAS   interface :  Fast vector & matrix operations
   LAPACKE interface :  Fast linear algebra routines
   SCALAPACK package :  Parallel linear algebra routines
   Shared memory     :  Shared parallel matrices
   BLAS/LAPACK       :  OpenBLAS 0.3.15  USE64BITINT DYNAMIC_ARCH NO_AFFINITY Haswell SINGLE_THREADED
        Core in use  :  Haswell
   Copyright (c) 2011-2014, The OpenBLAS Project


================================================================================

----- Orbital basis set information -----
Your calculation utilizes the basis: def2-TZVP
   F. Weigend and R. Ahlrichs, Phys. Chem. Chem. Phys. 7, 3297 (2005).

----- AuxC basis set information -----
Your calculation utilizes the auxiliary basis: def2-TZVP/C
  H-La, Hf-Rn : A. Hellweg, C. Hattig, S. Hofener and W. Klopper, Theor. Chem. Acc. 117, 587 (2007).
        Ce-Lu : J. Chmela and M. E. Harding, Mol. Phys. (2018).

================================================================================
                                        WARNINGS
                       Please study these warnings very carefully!
================================================================================


WARNING: Post HF methods need fully converged wavefunctions
  ===> : Setting SCFConvForced true
         You can overwrite this default with %scf ConvForced false 


WARNING: MDCI localization with Augmented Hessian Foster-Boys
  ===> : Switching off randomization!

INFO   : the flag for use of the SHARK integral package has been found!

================================================================================
                                       INPUT FILE
================================================================================
NAME = Fentanyl_OProt_184.inp
|  1> ! DLPNO-CCSD(T) def2-TZVP def2-TZVP/C VeryTightSCF
|  2> %maxcore 3400
|  3> 
|  4> %pal nprocs 8 
|  5> end
|  6> 
|  7> *xyz 1 1
|  8> O             2.517049         1.720998        -1.448582
|  9> N            -1.406386         1.375103         1.053013
| 10> N             1.546222         0.692875         0.267830
| 11> C             1.196092         2.051588         0.825808
| 12> C             0.188739         2.800637        -0.072259
| 13> C             0.659262         1.976721         2.250078
| 14> C            -1.238885         2.694592         0.466858
| 15> C            -0.738549         1.340611         2.347962
| 16> C            -2.782130         0.910272         1.152939
| 17> C            -3.465982         0.694662        -0.202782
| 18> C             1.273731        -0.527871         1.004086
| 19> C             2.186446         0.596017        -0.855714
| 20> C            -2.705964        -0.246530        -1.103337
| 21> C             2.549902        -0.720175        -1.482251
| 22> C             2.134593        -0.892886         2.029097
| 23> C             0.184323        -1.305468         0.654812
| 24> C             3.377301        -0.598994        -2.758231
| 25> C            -2.851699        -1.626434        -0.971041
| 26> C            -1.818078         0.235564        -2.063351
| 27> C             1.879365        -2.059028         2.738493
| 28> C            -0.056981        -2.474116         1.363537
| 29> C             0.782574        -2.846767         2.406901
| 30> C            -2.117558        -2.502994        -1.760721
| 31> C            -1.079621        -0.635502        -2.855804
| 32> C            -1.221182        -2.010359        -2.701879
| 33> H             2.143285         2.593288         0.834651
| 34> H             0.218677         2.395464        -1.082427
| 35> H             0.497210         3.846589        -0.140868
| 36> H             0.614151         3.018390         2.578253
| 37> H             1.357134         1.478046         2.921965
| 38> H            -1.450101         3.491628         1.199253
| 39> H            -1.941246         2.834964        -0.353010
| 40> H            -0.669013         0.302423         2.677762
| 41> H            -1.320515         1.885542         3.109737
| 42> H            -2.755147        -0.045497         1.686625
| 43> H            -3.396866         1.597020         1.758842
| 44> H            -3.620878         1.648954        -0.711024
| 45> H            -4.462492         0.291769        -0.004116
| 46> H             1.610776        -1.245760        -1.676083
| 47> H             3.071371        -1.311911        -0.726276
| 48> H             2.991152        -0.273379         2.272152
| 49> H            -0.470926        -0.986616        -0.142173
| 50> H             3.600763        -1.595938        -3.136942
| 51> H             4.337598        -0.103721        -2.585856
| 52> H             2.834753        -0.078506        -3.554214
| 53> H            -3.554984        -2.019654        -0.242889
| 54> H            -1.717507         1.306586        -2.205351
| 55> H             2.538897        -2.352577         3.546541
| 56> H            -0.908495        -3.089144         1.097648
| 57> H             0.585742        -3.756770         2.961880
| 58> H            -2.254467        -3.573248        -1.650983
| 59> H            -0.414239        -0.239920        -3.617389
| 60> H            -0.661243        -2.693728        -3.330954
| 61> H             2.993892         1.544654        -2.271919
| 62> *
| 63> 
| 64> 
| 65>                          ****END OF INPUT****
================================================================================

                       ****************************
                       * Single Point Calculation *
                       ****************************

---------------------------------
CARTESIAN COORDINATES (ANGSTROEM)
---------------------------------
  O      2.517049    1.720998   -1.448582
  N     -1.406386    1.375103    1.053013
  N      1.546222    0.692875    0.267830
  C      1.196092    2.051588    0.825808
  C      0.188739    2.800637   -0.072259
  C      0.659262    1.976721    2.250078
  C     -1.238885    2.694592    0.466858
  C     -0.738549    1.340611    2.347962
  C     -2.782130    0.910272    1.152939
  C     -3.465982    0.694662   -0.202782
  C      1.273731   -0.527871    1.004086
  C      2.186446    0.596017   -0.855714
  C     -2.705964   -0.246530   -1.103337
  C      2.549902   -0.720175   -1.482251
  C      2.134593   -0.892886    2.029097
  C      0.184323   -1.305468    0.654812
  C      3.377301   -0.598994   -2.758231
  C     -2.851699   -1.626434   -0.971041
  C     -1.818078    0.235564   -2.063351
  C      1.879365   -2.059028    2.738493
  C     -0.056981   -2.474116    1.363537
  C      0.782574   -2.846767    2.406901
  C     -2.117558   -2.502994   -1.760721
  C     -1.079621   -0.635502   -2.855804
  C     -1.221182   -2.010359   -2.701879
  H      2.143285    2.593288    0.834651
  H      0.218677    2.395464   -1.082427
  H      0.497210    3.846589   -0.140868
  H      0.614151    3.018390    2.578253
  H      1.357134    1.478046    2.921965
  H     -1.450101    3.491628    1.199253
  H     -1.941246    2.834964   -0.353010
  H     -0.669013    0.302423    2.677762
  H     -1.320515    1.885542    3.109737
  H     -2.755147   -0.045497    1.686625
  H     -3.396866    1.597020    1.758842
  H     -3.620878    1.648954   -0.711024
  H     -4.462492    0.291769   -0.004116
  H      1.610776   -1.245760   -1.676083
  H      3.071371   -1.311911   -0.726276
  H      2.991152   -0.273379    2.272152
  H     -0.470926   -0.986616   -0.142173
  H      3.600763   -1.595938   -3.136942
  H      4.337598   -0.103721   -2.585856
  H      2.834753   -0.078506   -3.554214
  H     -3.554984   -2.019654   -0.242889
  H     -1.717507    1.306586   -2.205351
  H      2.538897   -2.352577    3.546541
  H     -0.908495   -3.089144    1.097648
  H      0.585742   -3.756770    2.961880
  H     -2.254467   -3.573248   -1.650983
  H     -0.414239   -0.239920   -3.617389
  H     -0.661243   -2.693728   -3.330954
  H      2.993892    1.544654   -2.271919

----------------------------
CARTESIAN COORDINATES (A.U.)
----------------------------
  NO LB      ZA    FRAG     MASS         X           Y           Z
   0 O     8.0000    0    15.999    4.756533    3.252215   -2.737423
   1 N     7.0000    0    14.007   -2.657684    2.598568    1.989906
   2 N     7.0000    0    14.007    2.921936    1.309344    0.506125
   3 C     6.0000    0    12.011    2.260286    3.876939    1.560551
   4 C     6.0000    0    12.011    0.356665    5.292437   -0.136550
   5 C     6.0000    0    12.011    1.245825    3.735461    4.252031
   6 C     6.0000    0    12.011   -2.341153    5.092041    0.882234
   7 C     6.0000    0    12.011   -1.395655    2.533388    4.437005
   8 C     6.0000    0    12.011   -5.257464    1.720165    2.178739
   9 C     6.0000    0    12.011   -6.549757    1.312721   -0.383202
  10 C     6.0000    0    12.011    2.407003   -0.997532    1.897448
  11 C     6.0000    0    12.011    4.131784    1.126309   -1.617065
  12 C     6.0000    0    12.011   -5.113531   -0.465874   -2.085005
  13 C     6.0000    0    12.011    4.818616   -1.360934   -2.801048
  14 C     6.0000    0    12.011    4.033796   -1.687310    3.834438
  15 C     6.0000    0    12.011    0.348320   -2.466977    1.237415
  16 C     6.0000    0    12.011    6.382174   -1.131935   -5.212301
  17 C     6.0000    0    12.011   -5.388930   -3.073515   -1.835002
  18 C     6.0000    0    12.011   -3.435670    0.445151   -3.899168
  19 C     6.0000    0    12.011    3.551485   -3.890999    5.175002
  20 C     6.0000    0    12.011   -0.107678   -4.675402    2.576712
  21 C     6.0000    0    12.011    1.478851   -5.379610    4.548384
  22 C     6.0000    0    12.011   -4.001605   -4.729973   -3.327280
  23 C     6.0000    0    12.011   -2.040188   -1.200925   -5.396687
  24 C     6.0000    0    12.011   -2.307700   -3.799028   -5.105811
  25 H     1.0000    0     1.008    4.050222    4.900604    1.577262
  26 H     1.0000    0     1.008    0.413240    4.526771   -2.045491
  27 H     1.0000    0     1.008    0.939591    7.269000   -0.266202
  28 H     1.0000    0     1.008    1.160577    5.703930    4.872192
  29 H     1.0000    0     1.008    2.564612    2.793102    5.521714
  30 H     1.0000    0     1.008   -2.740294    6.598221    2.266260
  31 H     1.0000    0     1.008   -3.668423    5.357306   -0.667092
  32 H     1.0000    0     1.008   -1.264251    0.571497    5.060237
  33 H     1.0000    0     1.008   -2.495412    3.563158    5.876551
  34 H     1.0000    0     1.008   -5.206473   -0.085977    3.187259
  35 H     1.0000    0     1.008   -6.419146    3.017930    3.323730
  36 H     1.0000    0     1.008   -6.842468    3.116071   -1.343641
  37 H     1.0000    0     1.008   -8.432888    0.551364   -0.007778
  38 H     1.0000    0     1.008    3.043926   -2.354145   -3.167338
  39 H     1.0000    0     1.008    5.804050   -2.479153   -1.372463
  40 H     1.0000    0     1.008    5.652458   -0.516611    4.293745
  41 H     1.0000    0     1.008   -0.889921   -1.864434   -0.268668
  42 H     1.0000    0     1.008    6.804456   -3.015886   -5.927961
  43 H     1.0000    0     1.008    8.196872   -0.196004   -4.886560
  44 H     1.0000    0     1.008    5.356907   -0.148355   -6.716491
  45 H     1.0000    0     1.008   -6.717946   -3.816593   -0.458994
  46 H     1.0000    0     1.008   -3.245618    2.469090   -4.167509
  47 H     1.0000    0     1.008    4.797820   -4.445726    6.701991
  48 H     1.0000    0     1.008   -1.716807   -5.837636    2.074254
  49 H     1.0000    0     1.008    1.106892   -7.099266    5.597142
  50 H     1.0000    0     1.008   -4.260325   -6.752460   -3.119906
  51 H     1.0000    0     1.008   -0.782798   -0.453383   -6.835875
  52 H     1.0000    0     1.008   -1.249568   -5.090408   -6.294591
  53 H     1.0000    0     1.008    5.657636    2.918973   -4.293305

--------------------------------
INTERNAL COORDINATES (ANGSTROEM)
--------------------------------
 O      0   0   0     0.000000000000     0.00000000     0.00000000
 N      1   0   0     4.665936464878     0.00000000     0.00000000
 N      1   2   0     2.223873224984    35.39777764     0.00000000
 C      3   1   2     1.509977311668    88.30564843   307.25376685
 C      4   3   1     1.543489166628   111.90126186    65.98149187
 C      4   3   1     1.523921438096   112.50973111   190.08028273
 C      2   1   3     1.453507994525    67.64114818   151.58273333
 C      2   1   3     1.457425424931    95.32547025    43.11549846
 C      2   1   3     1.455583943843   148.78459998   253.76825230
 C      9   2   1     1.533662498676   113.93166939   336.82994108
 C      3   1   2     1.451394170835   149.57852357   135.92870659
 C      3   1   2     1.296772671780    31.82037822   126.45787385
 C     10   9   2     1.508134294157   113.00922834    55.49691691
 C     12   3   1     1.502334935082   123.10737932   180.05215449
 C     11   3   1     1.387431758102   118.65631251    90.95849191
 C     11   3   1     1.383278428932   119.51040075   272.07500502
 C     14  12   3     1.525581495811   114.23173234   183.63485901
 C     13  10   9     1.393870858816   120.56121664    82.98114765
 C     13  10   9     1.393694031711   121.09751101   264.58917438
 C     15  11   3     1.388622043957   118.96732359   179.94662221
 C     16  11   3     1.387896571775   118.77217744   179.59063369
 C     21  16  11     1.390082660248   120.26517739     0.22890504
 C     18  13  10     1.389573655436   121.01853242   182.50263155
 C     19  13  10     1.389984343226   120.95713809   177.42999068
 C     23  18  13     1.389948760770   120.12811740   359.94840089
 H      4   3   1     1.091188190872   104.38383139   307.90578646
 H      5   4   3     1.088807068308   109.95501599   338.48652745
 H      5   4   3     1.092646850097   108.47187680   221.94810719
 H      6   4   3     1.093072796527   104.37809644   170.63594603
 H      6   4   3     1.089556893777   111.91248155    56.31500798
 H      7   2   1     1.102851313631   111.48085913   225.53510092
 H      7   2   1     1.088668365541   110.26741955   107.50433226
 H      8   2   1     1.091529943996   108.67275430   260.89803694
 H      8   2   1     1.102694595317   111.11744437   143.23683531
 H      9   2   1     1.095008315149   106.79239519    96.73763701
 H      9   2   1     1.103014782589   111.44685415   213.05742413
 H     10   9   2     1.092234371664   110.59374442   291.93359072
 H     10   9   2     1.093079653596   107.31695665   176.62632013
 H     14  12   3     1.093511810784   106.69274745    60.80127886
 H     14  12   3     1.092510692068   107.54280738   307.66694621
 H     15  11   3     1.084692572370   120.34858526     0.12771475
 H     16  11   3     1.079908764725   119.88288195   358.26332825
 H     17  14  12     1.089612144802   109.22324323   179.53049531
 H     17  14  12     1.094156667650   112.34532923    61.22639090
 H     17  14  12     1.094922383887   112.15130056   297.34186750
 H     18  13  10     1.086018920060   119.32683269     2.87388450
 H     19  13  10     1.085065274776   119.38182959   356.25698117
 H     20  15  11     1.083556664291   119.77554328   180.46406392
 H     21  16  11     1.083527799967   119.29289921   179.94499814
 H     22  21  16     1.083904971238   119.98018092   179.56553273
 H     23  18  13     1.084541436479   119.88804474   180.75821671
 H     24  19  13     1.085923587032   119.80688740   178.26394250
 H     25  23  18     1.084555314176   120.15747106   181.11457398
 H      1   2   3     0.967657102777   148.98493902   107.34152510

---------------------------
INTERNAL COORDINATES (A.U.)
---------------------------
 O      0   0   0     0.000000000000     0.00000000     0.00000000
 N      1   0   0     8.817342076895     0.00000000     0.00000000
 N      1   2   0     4.202511351781    35.39777764     0.00000000
 C      3   1   2     2.853443587488    88.30564843   307.25376685
 C      4   3   1     2.916771815602   111.90126186    65.98149187
 C      4   3   1     2.879794167613   112.50973111   190.08028273
 C      2   1   3     2.746732043117    67.64114818   151.58273333
 C      2   1   3     2.754134913733    95.32547025    43.11549846
 C      2   1   3     2.750655018796   148.78459998   253.76825230
 C      9   2   1     2.898202104363   113.93166939   336.82994108
 C      3   1   2     2.742737495247   149.57852357   135.92870659
 C      3   1   2     2.450545207618    31.82037822   126.45787385
 C     10   9   2     2.849960789132   113.00922834    55.49691691
 C     12   3   1     2.839001588728   123.10737932   180.05215449
 C     11   3   1     2.621866052318   118.65631251    90.95849191
 C     11   3   1     2.614017397643   119.51040075   272.07500502
 C     14  12   3     2.882931222061   114.23173234   183.63485901
 C     13  10   9     2.634034189216   120.56121664    82.98114765
 C     13  10   9     2.633700034415   121.09751101   264.58917438
 C     15  11   3     2.624115366605   118.96732359   179.94662221
 C     16  11   3     2.622744422863   118.77217744   179.59063369
 C     21  16  11     2.626875531381   120.26517739     0.22890504
 C     18  13  10     2.625913651685   121.01853242   182.50263155
 C     19  13  10     2.626689739136   120.95713809   177.42999068
 C     23  18  13     2.626622498038   120.12811740   359.94840089
 H      4   3   1     2.062046841317   104.38383139   307.90578646
 H      5   4   3     2.057547171779   109.95501599   338.48652745
 H      5   4   3     2.064803307774   108.47187680   221.94810719
 H      6   4   3     2.065608229875   104.37809644   170.63594603
 H      6   4   3     2.058964136565   111.91248155    56.31500798
 H      7   2   1     2.084086949197   111.48085913   225.53510092
 H      7   2   1     2.057285061536   110.26741955   107.50433226
 H      8   2   1     2.062692661127   108.67275430   260.89803694
 H      8   2   1     2.083790794505   111.11744437   143.23683531
 H      9   2   1     2.069265829999   106.79239519    96.73763701
 H      9   2   1     2.084395860759   111.44685415   213.05742413
 H     10   9   2     2.064023836500   110.59374442   291.93359072
 H     10   9   2     2.065621187857   107.31695665   176.62632013
 H     14  12   3     2.066437846591   106.69274745    60.80127886
 H     14  12   3     2.064546006389   107.54280738   307.66694621
 H     15  11   3     2.049771901278   120.34858526     0.12771475
 H     16  11   3     2.040731814952   119.88288195   358.26332825
 H     17  14  12     2.059068545871   109.22324323   179.53049531
 H     17  14  12     2.067656449462   112.34532923    61.22639090
 H     17  14  12     2.069103443447   112.15130056   297.34186750
 H     18  13  10     2.052278335171   119.32683269     2.87388450
 H     19  13  10     2.050476206755   119.38182959   356.25698117
 H     20  15  11     2.047625346095   119.77554328   180.46406392
 H     21  16  11     2.047570800428   119.29289921   179.94499814
 H     22  21  16     2.048283550835   119.98018092   179.56553273
 H     23  18  13     2.049486295836   119.88804474   180.75821671
 H     24  19  13     2.052098181856   119.80688740   178.26394250
 H     25  23  18     2.049512520881   120.15747106   181.11457398
 H      1   2   3     1.828606915791   148.98493902   107.34152510

---------------------
BASIS SET INFORMATION
---------------------
There are 4 groups of distinct atoms

 Group   1 Type O   : 11s6p2d1f contracted to 5s3p2d1f pattern {62111/411/11/1}
 Group   2 Type N   : 11s6p2d1f contracted to 5s3p2d1f pattern {62111/411/11/1}
 Group   3 Type C   : 11s6p2d1f contracted to 5s3p2d1f pattern {62111/411/11/1}
 Group   4 Type H   : 5s1p contracted to 3s1p pattern {311/1}

Atom   0O    basis set group =>   1
Atom   1N    basis set group =>   2
Atom   2N    basis set group =>   2
Atom   3C    basis set group =>   3
Atom   4C    basis set group =>   3
Atom   5C    basis set group =>   3
Atom   6C    basis set group =>   3
Atom   7C    basis set group =>   3
Atom   8C    basis set group =>   3
Atom   9C    basis set group =>   3
Atom  10C    basis set group =>   3
Atom  11C    basis set group =>   3
Atom  12C    basis set group =>   3
Atom  13C    basis set group =>   3
Atom  14C    basis set group =>   3
Atom  15C    basis set group =>   3
Atom  16C    basis set group =>   3
Atom  17C    basis set group =>   3
Atom  18C    basis set group =>   3
Atom  19C    basis set group =>   3
Atom  20C    basis set group =>   3
Atom  21C    basis set group =>   3
Atom  22C    basis set group =>   3
Atom  23C    basis set group =>   3
Atom  24C    basis set group =>   3
Atom  25H    basis set group =>   4
Atom  26H    basis set group =>   4
Atom  27H    basis set group =>   4
Atom  28H    basis set group =>   4
Atom  29H    basis set group =>   4
Atom  30H    basis set group =>   4
Atom  31H    basis set group =>   4
Atom  32H    basis set group =>   4
Atom  33H    basis set group =>   4
Atom  34H    basis set group =>   4
Atom  35H    basis set group =>   4
Atom  36H    basis set group =>   4
Atom  37H    basis set group =>   4
Atom  38H    basis set group =>   4
Atom  39H    basis set group =>   4
Atom  40H    basis set group =>   4
Atom  41H    basis set group =>   4
Atom  42H    basis set group =>   4
Atom  43H    basis set group =>   4
Atom  44H    basis set group =>   4
Atom  45H    basis set group =>   4
Atom  46H    basis set group =>   4
Atom  47H    basis set group =>   4
Atom  48H    basis set group =>   4
Atom  49H    basis set group =>   4
Atom  50H    basis set group =>   4
Atom  51H    basis set group =>   4
Atom  52H    basis set group =>   4
Atom  53H    basis set group =>   4
---------------------------------
AUXILIARY/C BASIS SET INFORMATION
---------------------------------
There are 4 groups of distinct atoms

 Group   1 Type O   : 8s6p5d3f1g contracted to 8s6p4d3f1g pattern {11111111/111111/2111/111/1}
 Group   2 Type N   : 8s6p5d3f1g contracted to 8s6p4d3f1g pattern {11111111/111111/2111/111/1}
 Group   3 Type C   : 8s6p5d3f1g contracted to 8s6p4d3f1g pattern {11111111/111111/2111/111/1}
 Group   4 Type H   : 4s3p2d contracted to 4s2p1d pattern {1111/21/2}

Atom   0O    basis set group =>   1
Atom   1N    basis set group =>   2
Atom   2N    basis set group =>   2
Atom   3C    basis set group =>   3
Atom   4C    basis set group =>   3
Atom   5C    basis set group =>   3
Atom   6C    basis set group =>   3
Atom   7C    basis set group =>   3
Atom   8C    basis set group =>   3
Atom   9C    basis set group =>   3
Atom  10C    basis set group =>   3
Atom  11C    basis set group =>   3
Atom  12C    basis set group =>   3
Atom  13C    basis set group =>   3
Atom  14C    basis set group =>   3
Atom  15C    basis set group =>   3
Atom  16C    basis set group =>   3
Atom  17C    basis set group =>   3
Atom  18C    basis set group =>   3
Atom  19C    basis set group =>   3
Atom  20C    basis set group =>   3
Atom  21C    basis set group =>   3
Atom  22C    basis set group =>   3
Atom  23C    basis set group =>   3
Atom  24C    basis set group =>   3
Atom  25H    basis set group =>   4
Atom  26H    basis set group =>   4
Atom  27H    basis set group =>   4
Atom  28H    basis set group =>   4
Atom  29H    basis set group =>   4
Atom  30H    basis set group =>   4
Atom  31H    basis set group =>   4
Atom  32H    basis set group =>   4
Atom  33H    basis set group =>   4
Atom  34H    basis set group =>   4
Atom  35H    basis set group =>   4
Atom  36H    basis set group =>   4
Atom  37H    basis set group =>   4
Atom  38H    basis set group =>   4
Atom  39H    basis set group =>   4
Atom  40H    basis set group =>   4
Atom  41H    basis set group =>   4
Atom  42H    basis set group =>   4
Atom  43H    basis set group =>   4
Atom  44H    basis set group =>   4
Atom  45H    basis set group =>   4
Atom  46H    basis set group =>   4
Atom  47H    basis set group =>   4
Atom  48H    basis set group =>   4
Atom  49H    basis set group =>   4
Atom  50H    basis set group =>   4
Atom  51H    basis set group =>   4
Atom  52H    basis set group =>   4
Atom  53H    basis set group =>   4


           ************************************************************
           *        Program running with 8 parallel MPI-processes     *
           *              working on a common directory               *
           ************************************************************
------------------------------------------------------------------------------
                           ORCA GTO INTEGRAL CALCULATION
------------------------------------------------------------------------------
------------------------------------------------------------------------------
                   ___                                                        
                  /   \      - P O W E R E D   B Y -                         
                 /     \                                                     
                 |  |  |   _    _      __       _____    __    __             
                 |  |  |  | |  | |    /  \     |  _  \  |  |  /  |          
                  \  \/   | |  | |   /    \    | | | |  |  | /  /          
                 / \  \   | |__| |  /  /\  \   | |_| |  |  |/  /          
                |  |  |   |  __  | /  /__\  \  |    /   |      \           
                |  |  |   | |  | | |   __   |  |    \   |  |\   \          
                \     /   | |  | | |  |  |  |  | |\  \  |  | \   \       
                 \___/    |_|  |_| |__|  |__|  |_| \__\ |__|  \__/        
                                                                              
                      - O R C A' S   B I G   F R I E N D -                    
                                      &                                       
                       - I N T E G R A L  F E E D E R -                       
                                                                              
 v1 FN, 2020, v2 2021                                                         
------------------------------------------------------------------------------


Reading SHARK input file Fentanyl_OProt_184.SHARKINP.tmp ... ok
----------------------
SHARK INTEGRAL PACKAGE
----------------------

Number of atoms                             ...     54
Number of basis functions                   ...    949
Number of shells                            ...    391
Maximum angular momentum                    ...      3
Integral batch strategy                     ... SHARK/LIBINT Hybrid
RI-J (if used) integral strategy            ... SPLIT-RIJ (Revised 2003 algorithm where possible)
Printlevel                                  ...      1
Contraction scheme used                     ... SEGMENTED contraction
Coulomb Range Separation                    ... NOT USED
Exchange Range Separation                   ... NOT USED
Finite Nucleus Model                        ... NOT USED
Auxiliary Coulomb fitting basis             ... NOT available
Auxiliary J/K fitting basis                 ... NOT available
Auxiliary Correlation fitting basis         ... AVAILABLE
   # of basis functions in Aux-C            ...   2335
   # of shells in Aux-C                     ...    753
   Maximum angular momentum in Aux-C        ...      4
Auxiliary 'external' fitting basis          ... NOT available
Integral threshold                          ...     1.000000e-12
Primitive cut-off                           ...     1.000000e-14
Primitive pair pre-selection threshold      ...     1.000000e-14

Calculating pre-screening integrals         ... done (  0.1 sec) Dimension = 391
Organizing shell pair data                  ... done (  0.8 sec)
Shell pair information
Total number of shell pairs                 ...     76636
Shell pairs after pre-screening             ...     61870
Total number of primitive shell pairs       ...    228112
Primitive shell pairs kept                  ...    123848
          la=0 lb=0:  17652 shell pairs
          la=1 lb=0:  18045 shell pairs
          la=1 lb=1:   4704 shell pairs
          la=2 lb=0:   8520 shell pairs
          la=2 lb=1:   4457 shell pairs
          la=2 lb=2:   1102 shell pairs
          la=3 lb=0:   3964 shell pairs
          la=3 lb=1:   2127 shell pairs
          la=3 lb=2:   1040 shell pairs
          la=3 lb=3:    259 shell pairs

Calculating one electron integrals          ... done (  0.1 sec)
Calculating RI/C V-Matrix + Cholesky decomp.... done (  0.4 sec)
Calculating Nuclear repulsion               ... done (  0.0 sec) ENN=   2411.807939876763 Eh

SHARK setup successfully completed in   2.3 seconds

Maximum memory used throughout the entire GTOINT-calculation: 87.5 MB
[1704049367.641053] [gra291:18003:0]          mpool.c:42   UCX  WARN  object 0xc476400 was not returned to mpool ucp_requests
[1704049367.641097] [gra291:18003:0]          mpool.c:42   UCX  WARN  object 0xc4765c0 was not returned to mpool ucp_requests
[1704049367.641110] [gra291:18003:0]          mpool.c:42   UCX  WARN  object 0xc476780 was not returned to mpool ucp_requests
[1704049367.641122] [gra291:18003:0]          mpool.c:42   UCX  WARN  object 0xc476940 was not returned to mpool ucp_requests
[1704049367.641132] [gra291:18003:0]          mpool.c:42   UCX  WARN  object 0xc476b00 was not returned to mpool ucp_requests
[1704049367.641142] [gra291:18003:0]          mpool.c:42   UCX  WARN  object 0xc476cc0 was not returned to mpool ucp_requests
[1704049367.641160] [gra291:18003:0]          mpool.c:42   UCX  WARN  object 0xc476e80 was not returned to mpool ucp_requests
[1704049367.641171] [gra291:18003:0]          mpool.c:42   UCX  WARN  object 0xc477040 was not returned to mpool ucp_requests
[1704049367.641181] [gra291:18003:0]          mpool.c:42   UCX  WARN  object 0xc477200 was not returned to mpool ucp_requests
[1704049367.641195] [gra291:18003:0]          mpool.c:42   UCX  WARN  object 0xc4773c0 was not returned to mpool ucp_requests
[1704049367.641151] [gra291:18006:0]          mpool.c:42   UCX  WARN  object 0xb6890c0 was not returned to mpool ucp_requests
[1704049367.641182] [gra291:18006:0]          mpool.c:42   UCX  WARN  object 0xb689280 was not returned to mpool ucp_requests
[1704049367.641196] [gra291:18006:0]          mpool.c:42   UCX  WARN  object 0xb689440 was not returned to mpool ucp_requests
[1704049367.641207] [gra291:18006:0]          mpool.c:42   UCX  WARN  object 0xb689600 was not returned to mpool ucp_requests
[1704049367.641218] [gra291:18006:0]          mpool.c:42   UCX  WARN  object 0xb6897c0 was not returned to mpool ucp_requests
[1704049367.641228] [gra291:18006:0]          mpool.c:42   UCX  WARN  object 0xb689980 was not returned to mpool ucp_requests
[1704049367.641239] [gra291:18006:0]          mpool.c:42   UCX  WARN  object 0xb689b40 was not returned to mpool ucp_requests
[1704049367.641249] [gra291:18006:0]          mpool.c:42   UCX  WARN  object 0xb689d00 was not returned to mpool ucp_requests
[1704049367.641259] [gra291:18006:0]          mpool.c:42   UCX  WARN  object 0xb689ec0 was not returned to mpool ucp_requests
[1704049367.641274] [gra291:18006:0]          mpool.c:42   UCX  WARN  object 0xb68a080 was not returned to mpool ucp_requests
[1704049367.641284] [gra291:18006:0]          mpool.c:42   UCX  WARN  object 0xb68a240 was not returned to mpool ucp_requests
[1704049367.641294] [gra291:18006:0]          mpool.c:42   UCX  WARN  object 0xb68a400 was not returned to mpool ucp_requests
[1704049367.641304] [gra291:18006:0]          mpool.c:42   UCX  WARN  object 0xb68a5c0 was not returned to mpool ucp_requests
[1704049367.641314] [gra291:18006:0]          mpool.c:42   UCX  WARN  object 0xb68a780 was not returned to mpool ucp_requests
[1704049367.641324] [gra291:18006:0]          mpool.c:42   UCX  WARN  object 0xb68a940 was not returned to mpool ucp_requests
[1704049367.641334] [gra291:18006:0]          mpool.c:42   UCX  WARN  object 0xb68ab00 was not returned to mpool ucp_requests
[1704049367.641344] [gra291:18006:0]          mpool.c:42   UCX  WARN  object 0xb68acc0 was not returned to mpool ucp_requests
[1704049367.641355] [gra291:18006:0]          mpool.c:42   UCX  WARN  object 0xb68ae80 was not returned to mpool ucp_requests
[1704049367.641319] [gra291:18005:0]          mpool.c:42   UCX  WARN  object 0xb977400 was not returned to mpool ucp_requests
[1704049367.641351] [gra291:18005:0]          mpool.c:42   UCX  WARN  object 0xb9775c0 was not returned to mpool ucp_requests
[1704049367.641364] [gra291:18005:0]          mpool.c:42   UCX  WARN  object 0xb977780 was not returned to mpool ucp_requests
[1704049367.641376] [gra291:18005:0]          mpool.c:42   UCX  WARN  object 0xb977940 was not returned to mpool ucp_requests
[1704049367.641398] [gra291:18005:0]          mpool.c:42   UCX  WARN  object 0xb977b00 was not returned to mpool ucp_requests
[1704049367.641211] [gra291:18003:0]          mpool.c:42   UCX  WARN  object 0xc477580 was not returned to mpool ucp_requests
[1704049367.641221] [gra291:18003:0]          mpool.c:42   UCX  WARN  object 0xc477740 was not returned to mpool ucp_requests
[1704049367.641230] [gra291:18003:0]          mpool.c:42   UCX  WARN  object 0xc477900 was not returned to mpool ucp_requests
[1704049367.641239] [gra291:18003:0]          mpool.c:42   UCX  WARN  object 0xc477ac0 was not returned to mpool ucp_requests
[1704049367.641249] [gra291:18003:0]          mpool.c:42   UCX  WARN  object 0xc477c80 was not returned to mpool ucp_requests
[1704049367.641259] [gra291:18003:0]          mpool.c:42   UCX  WARN  object 0xc477e40 was not returned to mpool ucp_requests
[1704049367.641273] [gra291:18003:0]          mpool.c:42   UCX  WARN  object 0xc478000 was not returned to mpool ucp_requests
[1704049367.641283] [gra291:18003:0]          mpool.c:42   UCX  WARN  object 0xc4781c0 was not returned to mpool ucp_requests
[1704049367.641410] [gra291:18005:0]          mpool.c:42   UCX  WARN  object 0xb977cc0 was not returned to mpool ucp_requests
[1704049367.641420] [gra291:18005:0]          mpool.c:42   UCX  WARN  object 0xb977e80 was not returned to mpool ucp_requests
[1704049367.641431] [gra291:18005:0]          mpool.c:42   UCX  WARN  object 0xb978040 was not returned to mpool ucp_requests
[1704049367.641441] [gra291:18005:0]          mpool.c:42   UCX  WARN  object 0xb978200 was not returned to mpool ucp_requests
[1704049367.641451] [gra291:18005:0]          mpool.c:42   UCX  WARN  object 0xb9783c0 was not returned to mpool ucp_requests
[1704049367.641461] [gra291:18005:0]          mpool.c:42   UCX  WARN  object 0xb978580 was not returned to mpool ucp_requests
[1704049367.641471] [gra291:18005:0]          mpool.c:42   UCX  WARN  object 0xb978740 was not returned to mpool ucp_requests
[1704049367.641481] [gra291:18005:0]          mpool.c:42   UCX  WARN  object 0xb978900 was not returned to mpool ucp_requests
[1704049367.641501] [gra291:18005:0]          mpool.c:42   UCX  WARN  object 0xb978ac0 was not returned to mpool ucp_requests
[1704049367.641512] [gra291:18005:0]          mpool.c:42   UCX  WARN  object 0xb978c80 was not returned to mpool ucp_requests
[1704049367.641523] [gra291:18005:0]          mpool.c:42   UCX  WARN  object 0xb978e40 was not returned to mpool ucp_requests
[1704049367.641539] [gra291:18005:0]          mpool.c:42   UCX  WARN  object 0xb979000 was not returned to mpool ucp_requests
[1704049367.641550] [gra291:18005:0]          mpool.c:42   UCX  WARN  object 0xb9791c0 was not returned to mpool ucp_requests
[1704049367.642138] [gra291:18007:0]          mpool.c:42   UCX  WARN  object 0xc466400 was not returned to mpool ucp_requests
[1704049367.642175] [gra291:18007:0]          mpool.c:42   UCX  WARN  object 0xc4665c0 was not returned to mpool ucp_requests
[1704049367.642189] [gra291:18007:0]          mpool.c:42   UCX  WARN  object 0xc466780 was not returned to mpool ucp_requests
[1704049367.642202] [gra291:18007:0]          mpool.c:42   UCX  WARN  object 0xc466940 was not returned to mpool ucp_requests
[1704049367.642212] [gra291:18007:0]          mpool.c:42   UCX  WARN  object 0xc466b00 was not returned to mpool ucp_requests
[1704049367.642223] [gra291:18007:0]          mpool.c:42   UCX  WARN  object 0xc466cc0 was not returned to mpool ucp_requests
[1704049367.642233] [gra291:18007:0]          mpool.c:42   UCX  WARN  object 0xc466e80 was not returned to mpool ucp_requests
[1704049367.642244] [gra291:18007:0]          mpool.c:42   UCX  WARN  object 0xc467040 was not returned to mpool ucp_requests
[1704049367.642254] [gra291:18007:0]          mpool.c:42   UCX  WARN  object 0xc467200 was not returned to mpool ucp_requests
[1704049367.642265] [gra291:18007:0]          mpool.c:42   UCX  WARN  object 0xc4673c0 was not returned to mpool ucp_requests
[1704049367.642283] [gra291:18007:0]          mpool.c:42   UCX  WARN  object 0xc467580 was not returned to mpool ucp_requests
[1704049367.642295] [gra291:18007:0]          mpool.c:42   UCX  WARN  object 0xc467740 was not returned to mpool ucp_requests
[1704049367.642306] [gra291:18007:0]          mpool.c:42   UCX  WARN  object 0xc467900 was not returned to mpool ucp_requests
[1704049367.642316] [gra291:18007:0]          mpool.c:42   UCX  WARN  object 0xc467ac0 was not returned to mpool ucp_requests
[1704049367.642327] [gra291:18007:0]          mpool.c:42   UCX  WARN  object 0xc467c80 was not returned to mpool ucp_requests
[1704049367.642338] [gra291:18007:0]          mpool.c:42   UCX  WARN  object 0xc467e40 was not returned to mpool ucp_requests
[1704049367.642348] [gra291:18007:0]          mpool.c:42   UCX  WARN  object 0xc468000 was not returned to mpool ucp_requests
[1704049367.642363] [gra291:18007:0]          mpool.c:42   UCX  WARN  object 0xc4681c0 was not returned to mpool ucp_requests
[1704049367.642377] [gra291:18008:0]          mpool.c:42   UCX  WARN  object 0xb7180c0 was not returned to mpool ucp_requests
[1704049367.642410] [gra291:18008:0]          mpool.c:42   UCX  WARN  object 0xb718280 was not returned to mpool ucp_requests
[1704049367.642423] [gra291:18008:0]          mpool.c:42   UCX  WARN  object 0xb718440 was not returned to mpool ucp_requests
[1704049367.642435] [gra291:18008:0]          mpool.c:42   UCX  WARN  object 0xb718600 was not returned to mpool ucp_requests
[1704049367.642455] [gra291:18008:0]          mpool.c:42   UCX  WARN  object 0xb7187c0 was not returned to mpool ucp_requests
[1704049367.642466] [gra291:18008:0]          mpool.c:42   UCX  WARN  object 0xb718980 was not returned to mpool ucp_requests
[1704049367.642477] [gra291:18008:0]          mpool.c:42   UCX  WARN  object 0xb718b40 was not returned to mpool ucp_requests
[1704049367.642488] [gra291:18008:0]          mpool.c:42   UCX  WARN  object 0xb718d00 was not returned to mpool ucp_requests
[1704049367.642528] [gra291:18008:0]          mpool.c:42   UCX  WARN  object 0xb718ec0 was not returned to mpool ucp_requests
[1704049367.642539] [gra291:18008:0]          mpool.c:42   UCX  WARN  object 0xb719080 was not returned to mpool ucp_requests
[1704049367.642549] [gra291:18008:0]          mpool.c:42   UCX  WARN  object 0xb719240 was not returned to mpool ucp_requests
[1704049367.642560] [gra291:18008:0]          mpool.c:42   UCX  WARN  object 0xb719400 was not returned to mpool ucp_requests
[1704049367.642570] [gra291:18008:0]          mpool.c:42   UCX  WARN  object 0xb7195c0 was not returned to mpool ucp_requests
[1704049367.642580] [gra291:18008:0]          mpool.c:42   UCX  WARN  object 0xb719780 was not returned to mpool ucp_requests
[1704049367.642591] [gra291:18008:0]          mpool.c:42   UCX  WARN  object 0xb719940 was not returned to mpool ucp_requests
[1704049367.642613] [gra291:18008:0]          mpool.c:42   UCX  WARN  object 0xb719b00 was not returned to mpool ucp_requests
[1704049367.642631] [gra291:18008:0]          mpool.c:42   UCX  WARN  object 0xb719cc0 was not returned to mpool ucp_requests
[1704049367.642642] [gra291:18008:0]          mpool.c:42   UCX  WARN  object 0xb719e80 was not returned to mpool ucp_requests
[1704049367.643354] [gra291:18004:0]          mpool.c:42   UCX  WARN  object 0xac71400 was not returned to mpool ucp_requests
[1704049367.643486] [gra291:18004:0]          mpool.c:42   UCX  WARN  object 0xac715c0 was not returned to mpool ucp_requests
[1704049367.643616] [gra291:18004:0]          mpool.c:42   UCX  WARN  object 0xac71780 was not returned to mpool ucp_requests
[1704049367.643732] [gra291:18004:0]          mpool.c:42   UCX  WARN  object 0xac71940 was not returned to mpool ucp_requests
[1704049367.643846] [gra291:18004:0]          mpool.c:42   UCX  WARN  object 0xac71b00 was not returned to mpool ucp_requests
[1704049367.643979] [gra291:18004:0]          mpool.c:42   UCX  WARN  object 0xac71cc0 was not returned to mpool ucp_requests
[1704049367.644094] [gra291:18004:0]          mpool.c:42   UCX  WARN  object 0xac71e80 was not returned to mpool ucp_requests
[1704049367.644208] [gra291:18004:0]          mpool.c:42   UCX  WARN  object 0xac72040 was not returned to mpool ucp_requests
[1704049367.644322] [gra291:18004:0]          mpool.c:42   UCX  WARN  object 0xac72200 was not returned to mpool ucp_requests
[1704049367.644435] [gra291:18004:0]          mpool.c:42   UCX  WARN  object 0xac723c0 was not returned to mpool ucp_requests
[1704049367.644560] [gra291:18004:0]          mpool.c:42   UCX  WARN  object 0xac72580 was not returned to mpool ucp_requests
[1704049367.644674] [gra291:18004:0]          mpool.c:42   UCX  WARN  object 0xac72740 was not returned to mpool ucp_requests
[1704049367.644788] [gra291:18004:0]          mpool.c:42   UCX  WARN  object 0xac72900 was not returned to mpool ucp_requests
[1704049367.644901] [gra291:18004:0]          mpool.c:42   UCX  WARN  object 0xac72ac0 was not returned to mpool ucp_requests
[1704049367.645015] [gra291:18004:0]          mpool.c:42   UCX  WARN  object 0xac72c80 was not returned to mpool ucp_requests
[1704049367.645129] [gra291:18004:0]          mpool.c:42   UCX  WARN  object 0xac72e40 was not returned to mpool ucp_requests
[1704049367.645243] [gra291:18004:0]          mpool.c:42   UCX  WARN  object 0xac73000 was not returned to mpool ucp_requests
[1704049367.645653] [gra291:18004:0]          mpool.c:42   UCX  WARN  object 0xac731c0 was not returned to mpool ucp_requests
[1704049367.648806] [gra291:18002:0]          mpool.c:42   UCX  WARN  object 0xc530a80 was not returned to mpool ucp_requests
[1704049367.648840] [gra291:18002:0]          mpool.c:42   UCX  WARN  object 0xc530c40 was not returned to mpool ucp_requests
[1704049367.648853] [gra291:18002:0]          mpool.c:42   UCX  WARN  object 0xc530e00 was not returned to mpool ucp_requests
[1704049367.648874] [gra291:18002:0]          mpool.c:42   UCX  WARN  object 0xc530fc0 was not returned to mpool ucp_requests
[1704049367.648885] [gra291:18002:0]          mpool.c:42   UCX  WARN  object 0xc531180 was not returned to mpool ucp_requests
[1704049367.648903] [gra291:18002:0]          mpool.c:42   UCX  WARN  object 0xc531340 was not returned to mpool ucp_requests
[1704049367.648913] [gra291:18002:0]          mpool.c:42   UCX  WARN  object 0xc531500 was not returned to mpool ucp_requests
[1704049367.648923] [gra291:18002:0]          mpool.c:42   UCX  WARN  object 0xc5316c0 was not returned to mpool ucp_requests
[1704049367.648933] [gra291:18002:0]          mpool.c:42   UCX  WARN  object 0xc531880 was not returned to mpool ucp_requests
[1704049367.648942] [gra291:18002:0]          mpool.c:42   UCX  WARN  object 0xc531a40 was not returned to mpool ucp_requests
[1704049367.648952] [gra291:18002:0]          mpool.c:42   UCX  WARN  object 0xc531c00 was not returned to mpool ucp_requests
[1704049367.648962] [gra291:18002:0]          mpool.c:42   UCX  WARN  object 0xc531dc0 was not returned to mpool ucp_requests
[1704049367.648978] [gra291:18002:0]          mpool.c:42   UCX  WARN  object 0xc531f80 was not returned to mpool ucp_requests


           ************************************************************
           *        Program running with 8 parallel MPI-processes     *
           *              working on a common directory               *
           ************************************************************
-------------------------------------------------------------------------------
                                 ORCA SCF
-------------------------------------------------------------------------------

------------
SCF SETTINGS
------------
Hamiltonian:
 Ab initio Hamiltonian  Method          .... Hartree-Fock(GTOs)


General Settings:
 Integral files         IntName         .... Fentanyl_OProt_184
 Hartree-Fock type      HFTyp           .... RHF
 Total Charge           Charge          ....    1
 Multiplicity           Mult            ....    1
 Number of Electrons    NEL             ....  182
 Basis Dimension        Dim             ....  949
 Nuclear Repulsion      ENuc            ....   2411.8079398768 Eh

Convergence Acceleration:
 DIIS                   CNVDIIS         .... on
   Start iteration      DIISMaxIt       ....    12
   Startup error        DIISStart       ....  0.200000
   # of expansion vecs  DIISMaxEq       ....     5
   Bias factor          DIISBfac        ....   1.050
   Max. coefficient     DIISMaxC        ....  10.000
 Trust-Rad. Augm. Hess. CNVTRAH         .... auto
   Auto Start mean grad. ratio tolernc. ....  1.125000
   Auto Start start iteration           ....    20
   Auto Start num. interpolation iter.  ....    10
   Max. Number of Micro iterations      ....    16
   Max. Number of Macro iterations      .... Maxiter - #DIIS iter
   Number of Davidson start vectors     ....     2
   Converg. threshold I  (grad. norm)   ....   2.000e-06
   Converg. threshold II (energy diff.) ....   1.000e-09
   Grad. Scal. Fac. for Micro threshold ....   0.100
   Minimum threshold for Micro iter.    ....   0.010
   NR start threshold (gradient norm)   ....   0.001
   Initial trust radius                 ....   0.400
   Minimum AH scaling param. (alpha)    ....   1.000
   Maximum AH scaling param. (alpha)    .... 1000.000
   Orbital update algorithm             .... Taylor
   White noise on init. David. guess    .... on
   Maximum white noise                  ....   0.010
   Quad. conv. algorithm                .... NR
 SOSCF                  CNVSOSCF        .... on
   Start iteration      SOSCFMaxIt      ....   150
   Startup grad/error   SOSCFStart      ....  0.003300
 Level Shifting         CNVShift        .... on
   Level shift para.    LevelShift      ....    0.2500
   Turn off err/grad.   ShiftErr        ....    0.0010
 Zerner damping         CNVZerner       .... off
 Static damping         CNVDamp         .... on
   Fraction old density DampFac         ....    0.7000
   Max. Damping (<1)    DampMax         ....    0.9800
   Min. Damping (>=0)   DampMin         ....    0.0000
   Turn off err/grad.   DampErr         ....    0.1000
 Fernandez-Rico         CNVRico         .... off

SCF Procedure:
 Maximum # iterations   MaxIter         ....   125
 SCF integral mode      SCFMode         .... Direct
   Integral package                     .... SHARK and LIBINT hybrid scheme
 Reset frequency        DirectResetFreq ....    20
 Integral Threshold     Thresh          ....  1.000e-12 Eh
 Primitive CutOff       TCut            ....  1.000e-14 Eh

Convergence Tolerance:
 Convergence Check Mode ConvCheckMode   .... Total+1el-Energy
 Convergence forced     ConvForced      .... 1
 Energy Change          TolE            ....  1.000e-09 Eh
 1-El. energy change                    ....  1.000e-06 Eh
 Orbital Gradient       TolG            ....  2.000e-06
 Orbital Rotation angle TolX            ....  2.000e-06
 DIIS Error             TolErr          ....  1.000e-08


Diagonalization of the overlap matrix:
Smallest eigenvalue                        ... 4.866e-06
Time for diagonalization                   ...    0.330 sec
Threshold for overlap eigenvalues          ... 1.000e-08
Number of eigenvalues below threshold      ... 0
Time for construction of square roots      ...    0.175 sec
Total time needed                          ...    0.512 sec

Time for model grid setup =    0.607 sec

------------------------------
INITIAL GUESS: MODEL POTENTIAL
------------------------------
Loading Hartree-Fock densities                     ... done
Calculating cut-offs                               ... done
Initializing the effective Hamiltonian             ... done
Setting up the integral package (SHARK)            ... done
Starting the Coulomb interaction                   ... done (   1.6 sec)
Reading the grid                                   ... done
Mapping shells                                     ... done
Starting the XC term evaluation                    ... done (   0.6 sec)
Transforming the Hamiltonian                       ... done (   0.2 sec)
Diagonalizing the Hamiltonian                      ... done (   0.3 sec)
Back transforming the eigenvectors                 ... done (   0.1 sec)
Now organizing SCF variables                       ... done
                      ------------------
                      INITIAL GUESS DONE (   3.3 sec)
                      ------------------
--------------
SCF ITERATIONS
--------------
ITER       Energy         Delta-E        Max-DP      RMS-DP      [F,P]     Damp
               ***  Starting incremental Fock matrix formation  ***
  0  -1032.8732383238   0.000000000000 0.04413944  0.00061696  0.2951048 0.7000
  1  -1033.2207992658  -0.347560942048 0.03265167  0.00049827  0.2189432 0.7000
                               ***Turning on DIIS***
  2  -1033.4365193654  -0.215720099633 0.02248867  0.00034459  0.1613890 0.7000
  3  -1036.3324803013  -2.895960935811 0.01758456  0.00025042  0.1179505 0.7000
  4  -1035.8935826544   0.438897646885 0.04400253  0.00064430  0.0834235 0.0000
  5  -1033.9879317781   1.905650876311 0.00406442  0.00007663  0.0036213 0.0000
                      *** Initiating the SOSCF procedure ***
                           *** Shutting down DIIS ***
                      *** Re-Reading the Fockian *** 
                      *** Removing any level shift *** 
ITER      Energy       Delta-E        Grad      Rot      Max-DP    RMS-DP
  6  -1033.91662502   0.0713067580  0.001146  0.001146  0.002402  0.000041
               *** Restarting incremental Fock matrix formation ***
  7  -1033.89729259   0.0193324260  0.000498  0.001075  0.001169  0.000020
  8  -1033.89732688  -0.0000342872  0.000443  0.001665  0.001115  0.000019
  9  -1033.89733833  -0.0000114499  0.000208  0.000395  0.000321  0.000005
 10  -1033.89733987  -0.0000015376  0.000088  0.000345  0.000250  0.000004
 11  -1033.89734038  -0.0000005149  0.000029  0.000160  0.000066  0.000001
 12  -1033.89734047  -0.0000000898  0.000010  0.000022  0.000036  0.000001
 13  -1033.89734048  -0.0000000099  0.000004  0.000007  0.000010  0.000000
 14  -1033.89734048  -0.0000000014  0.000002  0.000003  0.000004  0.000000
                  ***Gradient check signals convergence***
              ***Rediagonalizing the Fockian in SOSCF/NRSCF***

               *****************************************************
               *                     SUCCESS                       *
               *           SCF CONVERGED AFTER  15 CYCLES          *
               *****************************************************


----------------
TOTAL SCF ENERGY
----------------

Total Energy       :        -1033.89734049 Eh          -28133.77693 eV

Components:
Nuclear Repulsion  :         2411.80793988 Eh           65628.63054 eV
Electronic Energy  :        -3445.70528036 Eh          -93762.40747 eV
One Electron Energy:        -6178.86405172 Eh         -168135.43869 eV
Two Electron Energy:         2733.15877136 Eh           74373.03122 eV

Virial components:
Potential Energy   :        -2066.95954647 Eh          -56244.82869 eV
Kinetic Energy     :         1033.06220598 Eh           28111.05176 eV
Virial Ratio       :            2.00080841


---------------
SCF CONVERGENCE
---------------

  Last Energy change         ...   -2.2374e-10  Tolerance :   1.0000e-09
  Last MAX-Density change    ...    2.6044e-06  Tolerance :   1.0000e-08
  Last RMS-Density change    ...    2.6836e-08  Tolerance :   1.0000e-09
  Last Orbital Gradient      ...    3.2962e-07  Tolerance :   2.0000e-06
  Last Orbital Rotation      ...    7.3300e-07  Tolerance :   2.0000e-06

             **** THE GBW FILE WAS UPDATED (Fentanyl_OProt_184.gbw) ****
             **** DENSITY Fentanyl_OProt_184.scfp WAS UPDATED ****
             **** ENERGY FILE WAS UPDATED (Fentanyl_OProt_184.en.tmp) ****
             **** THE GBW FILE WAS UPDATED (Fentanyl_OProt_184.gbw) ****
             **** DENSITY Fentanyl_OProt_184.scfp WAS UPDATED ****
----------------
ORBITAL ENERGIES
----------------

  NO   OCC          E(Eh)            E(eV) 
   0   2.0000     -20.783922      -565.5593 
   1   2.0000     -15.773330      -429.2141 
   2   2.0000     -15.646913      -425.7742 
   3   2.0000     -11.545279      -314.1630 
   4   2.0000     -11.407320      -310.4089 
   5   2.0000     -11.398188      -310.1605 
   6   2.0000     -11.395393      -310.0844 
   7   2.0000     -11.369772      -309.3872 
   8   2.0000     -11.359079      -309.0962 
   9   2.0000     -11.351344      -308.8858 
  10   2.0000     -11.350631      -308.8664 
  11   2.0000     -11.349387      -308.8325 
  12   2.0000     -11.348223      -308.8008 
  13   2.0000     -11.347969      -308.7939 
  14   2.0000     -11.347077      -308.7697 
  15   2.0000     -11.345398      -308.7240 
  16   2.0000     -11.341353      -308.6139 
  17   2.0000     -11.338940      -308.5483 
  18   2.0000     -11.336285      -308.4760 
  19   2.0000     -11.335203      -308.4466 
  20   2.0000     -11.330623      -308.3219 
  21   2.0000     -11.329346      -308.2872 
  22   2.0000     -11.329170      -308.2824 
  23   2.0000     -11.326080      -308.1983 
  24   2.0000     -11.321503      -308.0738 
  25   2.0000      -1.629257       -44.3343 
  26   2.0000      -1.447310       -39.3833 
  27   2.0000      -1.346285       -36.6343 
  28   2.0000      -1.274255       -34.6742 
  29   2.0000      -1.257445       -34.2168 
  30   2.0000      -1.227951       -33.4142 
  31   2.0000      -1.193694       -32.4821 
  32   2.0000      -1.154872       -31.4257 
  33   2.0000      -1.148411       -31.2498 
  34   2.0000      -1.139003       -30.9939 
  35   2.0000      -1.127247       -30.6740 
  36   2.0000      -1.114264       -30.3207 
  37   2.0000      -1.085229       -29.5306 
  38   2.0000      -1.058107       -28.7925 
  39   2.0000      -1.014474       -27.6053 
  40   2.0000      -1.001671       -27.2568 
  41   2.0000      -0.974208       -26.5095 
  42   2.0000      -0.953761       -25.9531 
  43   2.0000      -0.944811       -25.7096 
  44   2.0000      -0.930666       -25.3247 
  45   2.0000      -0.926884       -25.2218 
  46   2.0000      -0.896130       -24.3849 
  47   2.0000      -0.879840       -23.9417 
  48   2.0000      -0.872673       -23.7466 
  49   2.0000      -0.852070       -23.1860 
  50   2.0000      -0.829111       -22.5612 
  51   2.0000      -0.806538       -21.9470 
  52   2.0000      -0.799026       -21.7426 
  53   2.0000      -0.789886       -21.4939 
  54   2.0000      -0.777554       -21.1583 
  55   2.0000      -0.759437       -20.6653 
  56   2.0000      -0.753681       -20.5087 
  57   2.0000      -0.744526       -20.2596 
  58   2.0000      -0.740537       -20.1510 
  59   2.0000      -0.734711       -19.9925 
  60   2.0000      -0.728212       -19.8156 
  61   2.0000      -0.725907       -19.7529 
  62   2.0000      -0.715428       -19.4678 
  63   2.0000      -0.709267       -19.3001 
  64   2.0000      -0.700446       -19.0601 
  65   2.0000      -0.688526       -18.7357 
  66   2.0000      -0.686688       -18.6857 
  67   2.0000      -0.683685       -18.6040 
  68   2.0000      -0.674842       -18.3634 
  69   2.0000      -0.669254       -18.2113 
  70   2.0000      -0.663269       -18.0485 
  71   2.0000      -0.654295       -17.8043 
  72   2.0000      -0.649785       -17.6815 
  73   2.0000      -0.638276       -17.3684 
  74   2.0000      -0.631499       -17.1840 
  75   2.0000      -0.626191       -17.0395 
  76   2.0000      -0.620181       -16.8760 
  77   2.0000      -0.615037       -16.7360 
  78   2.0000      -0.613307       -16.6889 
  79   2.0000      -0.600679       -16.3453 
  80   2.0000      -0.592687       -16.1278 
  81   2.0000      -0.584563       -15.9068 
  82   2.0000      -0.575599       -15.6628 
  83   2.0000      -0.574201       -15.6248 
  84   2.0000      -0.564367       -15.3572 
  85   2.0000      -0.550079       -14.9684 
  86   2.0000      -0.464810       -12.6481 
  87   2.0000      -0.461140       -12.5482 
  88   2.0000      -0.453178       -12.3316 
  89   2.0000      -0.438026       -11.9193 
  90   2.0000      -0.426567       -11.6075 
  91   0.0000      -0.019087        -0.5194 
  92   0.0000      -0.009240        -0.2514 
  93   0.0000       0.002194         0.0597 
  94   0.0000       0.007947         0.2163 
  95   0.0000       0.021536         0.5860 
  96   0.0000       0.024164         0.6575 
  97   0.0000       0.027814         0.7569 
  98   0.0000       0.043352         1.1797 
  99   0.0000       0.045313         1.2330 
 100   0.0000       0.054546         1.4843 
 101   0.0000       0.058591         1.5943 
 102   0.0000       0.068753         1.8709 
 103   0.0000       0.073880         2.0104 
 104   0.0000       0.076414         2.0793 
 105   0.0000       0.078924         2.1476 
 106   0.0000       0.085955         2.3390 
 107   0.0000       0.091735         2.4962 
 108   0.0000       0.095656         2.6029 
 109   0.0000       0.103726         2.8225 
 110   0.0000       0.104614         2.8467 
 111   0.0000       0.108513         2.9528 
 112   0.0000       0.113771         3.0959 
 113   0.0000       0.118295         3.2190 
 114   0.0000       0.123016         3.3474 
 115   0.0000       0.126684         3.4472 
 116   0.0000       0.134079         3.6485 
 117   0.0000       0.136626         3.7178 
 118   0.0000       0.143809         3.9132 
 119   0.0000       0.146503         3.9866 
 120   0.0000       0.152615         4.1529 
 121   0.0000       0.159183         4.3316 
 122   0.0000       0.160964         4.3800 
 123   0.0000       0.171139         4.6569 
 124   0.0000       0.172658         4.6983 
 125   0.0000       0.174655         4.7526 
 126   0.0000       0.178761         4.8643 
 127   0.0000       0.183989         5.0066 
 128   0.0000       0.191003         5.1974 
 129   0.0000       0.198362         5.3977 
 130   0.0000       0.201758         5.4901 
 131   0.0000       0.204342         5.5604 
 132   0.0000       0.207386         5.6433 
 133   0.0000       0.209992         5.7142 
 134   0.0000       0.217221         5.9109 
 135   0.0000       0.218991         5.9591 
 136   0.0000       0.222501         6.0546 
 137   0.0000       0.228904         6.2288 
 138   0.0000       0.230979         6.2853 
 139   0.0000       0.234984         6.3943 
 140   0.0000       0.246534         6.7085 
 141   0.0000       0.248425         6.7600 
 142   0.0000       0.251849         6.8532 
 143   0.0000       0.255595         6.9551 
 144   0.0000       0.258413         7.0318 
 145   0.0000       0.268072         7.2946 
 146   0.0000       0.270937         7.3726 
 147   0.0000       0.274092         7.4584 
 148   0.0000       0.276539         7.5250 
 149   0.0000       0.279391         7.6026 
 150   0.0000       0.288394         7.8476 
 151   0.0000       0.292441         7.9577 
 152   0.0000       0.297681         8.1003 
 153   0.0000       0.300270         8.1708 
 154   0.0000       0.301782         8.2119 
 155   0.0000       0.310025         8.4362 
 156   0.0000       0.311959         8.4888 
 157   0.0000       0.320673         8.7259 
 158   0.0000       0.327042         8.8993 
 159   0.0000       0.332862         9.0576 
 160   0.0000       0.335458         9.1283 
 161   0.0000       0.342902         9.3308 
 162   0.0000       0.348686         9.4882 
 163   0.0000       0.358861         9.7651 
 164   0.0000       0.364693         9.9238 
 165   0.0000       0.367145         9.9905 
 166   0.0000       0.370091        10.0707 
 167   0.0000       0.371915        10.1203 
 168   0.0000       0.377774        10.2797 
 169   0.0000       0.383487        10.4352 
 170   0.0000       0.387748        10.5512 
 171   0.0000       0.392562        10.6822 
 172   0.0000       0.395393        10.7592 
 173   0.0000       0.400572        10.9001 
 174   0.0000       0.405758        11.0412 
 175   0.0000       0.408063        11.1040 
 176   0.0000       0.411958        11.2100 
 177   0.0000       0.420118        11.4320 
 178   0.0000       0.422288        11.4910 
 179   0.0000       0.423687        11.5291 
 180   0.0000       0.429122        11.6770 
 181   0.0000       0.429560        11.6889 
 182   0.0000       0.434483        11.8229 
 183   0.0000       0.440410        11.9842 
 184   0.0000       0.442016        12.0279 
 185   0.0000       0.447929        12.1888 
 186   0.0000       0.449556        12.2330 
 187   0.0000       0.456218        12.4143 
 188   0.0000       0.458847        12.4859 
 189   0.0000       0.463623        12.6158 
 190   0.0000       0.464554        12.6411 
 191   0.0000       0.465713        12.6727 
 192   0.0000       0.472438        12.8557 
 193   0.0000       0.475092        12.9279 
 194   0.0000       0.480953        13.0874 
 195   0.0000       0.483089        13.1455 
 196   0.0000       0.485833        13.2202 
 197   0.0000       0.487640        13.2694 
 198   0.0000       0.492498        13.4015 
 199   0.0000       0.498270        13.5586 
 200   0.0000       0.500896        13.6301 
 201   0.0000       0.503528        13.7017 
 202   0.0000       0.506154        13.7731 
 203   0.0000       0.507787        13.8176 
 204   0.0000       0.510481        13.8909 
 205   0.0000       0.513622        13.9764 
 206   0.0000       0.518737        14.1156 
 207   0.0000       0.520968        14.1763 
 208   0.0000       0.526702        14.3323 
 209   0.0000       0.527725        14.3601 
 210   0.0000       0.532962        14.5026 
 211   0.0000       0.536113        14.5884 
 212   0.0000       0.540105        14.6970 
 213   0.0000       0.540590        14.7102 
 214   0.0000       0.542450        14.7608 
 215   0.0000       0.550759        14.9869 
 216   0.0000       0.552688        15.0394 
 217   0.0000       0.558512        15.1979 
 218   0.0000       0.561032        15.2665 
 219   0.0000       0.563318        15.3287 
 220   0.0000       0.568068        15.4579 
 221   0.0000       0.570490        15.5238 
 222   0.0000       0.572032        15.5658 
 223   0.0000       0.577689        15.7197 
 224   0.0000       0.580329        15.7915 
 225   0.0000       0.582440        15.8490 
 226   0.0000       0.587537        15.9877 
 227   0.0000       0.592575        16.1248 
 228   0.0000       0.597340        16.2545 
 229   0.0000       0.603396        16.4192 
 230   0.0000       0.608376        16.5547 
 231   0.0000       0.614898        16.7322 
 232   0.0000       0.615868        16.7586 
 233   0.0000       0.621930        16.9236 
 234   0.0000       0.629935        17.1414 
 235   0.0000       0.633205        17.2304 
 236   0.0000       0.634100        17.2547 
 237   0.0000       0.644063        17.5258 
 238   0.0000       0.656662        17.8687 
 239   0.0000       0.659582        17.9481 
 240   0.0000       0.660971        17.9859 
 241   0.0000       0.666857        18.1461 
 242   0.0000       0.669247        18.2111 
 243   0.0000       0.672392        18.2967 
 244   0.0000       0.679347        18.4860 
 245   0.0000       0.686274        18.6745 
 246   0.0000       0.697548        18.9813 
 247   0.0000       0.705531        19.1985 
 248   0.0000       0.709028        19.2936 
 249   0.0000       0.719840        19.5879 
 250   0.0000       0.725349        19.7378 
 251   0.0000       0.729815        19.8593 
 252   0.0000       0.736915        20.0525 
 253   0.0000       0.747811        20.3490 
 254   0.0000       0.755715        20.5641 
 255   0.0000       0.766434        20.8557 
 256   0.0000       0.771374        20.9901 
 257   0.0000       0.776274        21.1235 
 258   0.0000       0.780728        21.2447 
 259   0.0000       0.791868        21.5478 
 260   0.0000       0.798304        21.7229 
 261   0.0000       0.804766        21.8988 
 262   0.0000       0.808996        22.0139 
 263   0.0000       0.815234        22.1837 
 264   0.0000       0.817887        22.2558 
 265   0.0000       0.823438        22.4069 
 266   0.0000       0.827234        22.5102 
 267   0.0000       0.834699        22.7133 
 268   0.0000       0.839552        22.8454 
 269   0.0000       0.841659        22.9027 
 270   0.0000       0.846235        23.0272 
 271   0.0000       0.856280        23.3006 
 272   0.0000       0.860191        23.4070 
 273   0.0000       0.865760        23.5585 
 274   0.0000       0.867646        23.6098 
 275   0.0000       0.874336        23.7919 
 276   0.0000       0.883700        24.0467 
 277   0.0000       0.887410        24.1477 
 278   0.0000       0.892474        24.2854 
 279   0.0000       0.896474        24.3943 
 280   0.0000       0.902757        24.5653 
 281   0.0000       0.905588        24.6423 
 282   0.0000       0.912846        24.8398 
 283   0.0000       0.919873        25.0310 
 284   0.0000       0.924918        25.1683 
 285   0.0000       0.932616        25.3778 
 286   0.0000       0.937399        25.5079 
 287   0.0000       0.946903        25.7665 
 288   0.0000       0.950521        25.8650 
 289   0.0000       0.954619        25.9765 
 290   0.0000       0.964102        26.2345 
 291   0.0000       0.968456        26.3530 
 292   0.0000       0.973182        26.4816 
 293   0.0000       0.978222        26.6188 
 294   0.0000       0.982322        26.7303 
 295   0.0000       0.987906        26.8823 
 296   0.0000       0.989829        26.9346 
 297   0.0000       0.994717        27.0676 
 298   0.0000       1.008938        27.4546 
 299   0.0000       1.014408        27.6035 
 300   0.0000       1.021401        27.7937 
 301   0.0000       1.028734        27.9933 
 302   0.0000       1.034603        28.1530 
 303   0.0000       1.038586        28.2614 
 304   0.0000       1.047033        28.4912 
 305   0.0000       1.049763        28.5655 
 306   0.0000       1.057646        28.7800 
 307   0.0000       1.065947        29.0059 
 308   0.0000       1.071398        29.1542 
 309   0.0000       1.076627        29.2965 
 310   0.0000       1.081124        29.4189 
 311   0.0000       1.093973        29.7685 
 312   0.0000       1.102692        30.0058 
 313   0.0000       1.112692        30.2779 
 314   0.0000       1.121469        30.5167 
 315   0.0000       1.131433        30.7879 
 316   0.0000       1.138032        30.9674 
 317   0.0000       1.142252        31.0823 
 318   0.0000       1.146493        31.1977 
 319   0.0000       1.161605        31.6089 
 320   0.0000       1.167950        31.7815 
 321   0.0000       1.171745        31.8848 
 322   0.0000       1.177973        32.0543 
 323   0.0000       1.185095        32.2481 
 324   0.0000       1.191959        32.4349 
 325   0.0000       1.207136        32.8478 
 326   0.0000       1.214977        33.0612 
 327   0.0000       1.222523        33.2665 
 328   0.0000       1.224838        33.3295 
 329   0.0000       1.231057        33.4988 
 330   0.0000       1.233363        33.5615 
 331   0.0000       1.240733        33.7621 
 332   0.0000       1.246881        33.9294 
 333   0.0000       1.248667        33.9779 
 334   0.0000       1.250894        34.0386 
 335   0.0000       1.263780        34.3892 
 336   0.0000       1.264887        34.4193 
 337   0.0000       1.272945        34.6386 
 338   0.0000       1.282479        34.8980 
 339   0.0000       1.285436        34.9785 
 340   0.0000       1.289668        35.0937 
 341   0.0000       1.298784        35.3417 
 342   0.0000       1.306414        35.5493 
 343   0.0000       1.310348        35.6564 
 344   0.0000       1.314837        35.7785 
 345   0.0000       1.325922        36.0802 
 346   0.0000       1.331926        36.2435 
 347   0.0000       1.342774        36.5387 
 348   0.0000       1.350995        36.7624 
 349   0.0000       1.356461        36.9112 
 350   0.0000       1.363259        37.0962 
 351   0.0000       1.370579        37.2953 
 352   0.0000       1.373741        37.3814 
 353   0.0000       1.381447        37.5911 
 354   0.0000       1.389993        37.8236 
 355   0.0000       1.393221        37.9115 
 356   0.0000       1.398969        38.0679 
 357   0.0000       1.406403        38.2702 
 358   0.0000       1.412753        38.4430 
 359   0.0000       1.420224        38.6463 
 360   0.0000       1.424958        38.7751 
 361   0.0000       1.426946        38.8292 
 362   0.0000       1.440849        39.2075 
 363   0.0000       1.444014        39.2936 
 364   0.0000       1.453181        39.5431 
 365   0.0000       1.458737        39.6943 
 366   0.0000       1.460410        39.7398 
 367   0.0000       1.464465        39.8501 
 368   0.0000       1.471542        40.0427 
 369   0.0000       1.482574        40.3429 
 370   0.0000       1.487756        40.4839 
 371   0.0000       1.492623        40.6163 
 372   0.0000       1.507190        41.0127 
 373   0.0000       1.513070        41.1727 
 374   0.0000       1.520174        41.3660 
 375   0.0000       1.532805        41.7097 
 376   0.0000       1.544848        42.0375 
 377   0.0000       1.546528        42.0832 
 378   0.0000       1.561765        42.4978 
 379   0.0000       1.577111        42.9154 
 380   0.0000       1.582755        43.0690 
 381   0.0000       1.588884        43.2357 
 382   0.0000       1.602850        43.6158 
 383   0.0000       1.612435        43.8766 
 384   0.0000       1.618692        44.0469 
 385   0.0000       1.628403        44.3111 
 386   0.0000       1.628980        44.3268 
 387   0.0000       1.636575        44.5335 
 388   0.0000       1.638453        44.5846 
 389   0.0000       1.646143        44.7938 
 390   0.0000       1.657344        45.0986 
 391   0.0000       1.667657        45.3793 
 392   0.0000       1.668695        45.4075 
 393   0.0000       1.672165        45.5019 
 394   0.0000       1.678326        45.6696 
 395   0.0000       1.684151        45.8281 
 396   0.0000       1.691193        46.0197 
 397   0.0000       1.698359        46.2147 
 398   0.0000       1.704066        46.3700 
 399   0.0000       1.715835        46.6902 
 400   0.0000       1.727292        47.0020 
 401   0.0000       1.728589        47.0373 
 402   0.0000       1.733662        47.1753 
 403   0.0000       1.740096        47.3504 
 404   0.0000       1.744908        47.4814 
 405   0.0000       1.751659        47.6651 
 406   0.0000       1.761512        47.9332 
 407   0.0000       1.769771        48.1579 
 408   0.0000       1.775080        48.3024 
 409   0.0000       1.776745        48.3477 
 410   0.0000       1.784036        48.5461 
 411   0.0000       1.789520        48.6953 
 412   0.0000       1.792271        48.7702 
 413   0.0000       1.794316        48.8258 
[...]
Initial total correlation energy                               -3.999955548093
Thresholds for map construction and integral transformation for fine MP2 and CCSD(T) calculation:
   TCutMKN   ...     1.0e-03
   TCutDO    ...     1.0e-02
   TCutPairs ...     1.0e-04
   TCutCMO   ...     1.0e-03
   TCutCPAO  ...     1.0e-03

Thresholds for map construction and integral transformation for strong Triples:
   TCutMKN   ...     1.0e-02
   TCutDO    ...     2.0e-02
   TCutCMO   ...     1.0e-03
   TCutCPAO  ...     1.0e-03

Thresholds for map construction and integral transformation for weak Triples:
   TCutMKN   ...     1.0e-01
   TCutDO    ...     4.0e-02
   TCutCMO   ...     1.0e-03
   TCutCPAO  ...     1.0e-03

--------------------------------
LOCAL RI TRANSFORMATION (IAVPAO)
--------------------------------

Orbital window:      25 to 90
Number of PAOs:     949
Basis functions:    949 (391 shells)
Aux. functions:    2335 (753 shells)
Use SHARK:           on

Processing maps (0.1 sec)
Average map sizes:
   Aux shells -> MOs              62.5
   Aux shells -> PAOs            949.0
   MOs        -> AO shells       348.7
   PAOs       -> AO shells       386.9

Calculating integrals (12.6 sec, 1068.926 MB)
Sorting integrals (2.9 sec, 1068.900 MB)
Total time for the integral transformation: 15.8 sec
--------------------------------
INITIAL GUESS AND PNO GENERATION
--------------------------------

PNO truncation parameters                   .... 
    PAOOverlapThresh   =        1.000e-08

    TCutPairs          =        1.000e-04
    TCutPNO            =        3.330e-07
    TCutPNOSingles     =        9.990e-09
    TCutMP2Pairs       =        1.000e-05
    TCutMKN            =        1.000e-03
    TCutDO             =        1.000e-02

Pair selection                          .... not used
Type of local MP2 treatment                 .... semi-local MP2
Strategy for PNO selection                  .... occupation number selection
Pair density normalization                  .... MP2 norm
Spin component scaling                      .... not used

   .... Finished loop over pairs

 PNO Occupation Number Statistics: 
  | Av. % of trace(Dij) retained        ...  97.427643576721
  | sigma^2 in % of trace(Dij) retained ...   5.53e+00
  | Av. % of trace(Di) retained         ...  99.999010638490
  | sigma^2 in % of trace(Di) retained  ...   1.15e-07
 Distributions of % trace(Dij) recovered:
  |       >= 99.9  ...   205 ( 13.5 % of all pairs)
  |   [80.0, 90.0) ...    14 (  0.9 % of all pairs)
  |   [90.0, 99.0) ...  1004 ( 66.2 % of all pairs)
  |   [99.0, 99.9) ...   293 ( 19.3 % of all pairs)
 Distributions of % trace(Di) recovered :
  |       >= 99.9  ...    66 (100.0 % of all I-pairs )

Making pair pair interaction lists          ... done

                       ===========================
                        792 OF 1516 PAIRS ARE KEPT
                       ===========================

Total time spent in the initial guess                 ...   129.688 sec
SL-MP2 correlation energy (all non-screened pairs)    ...      -4.002003398999 Eh

Initial PNO correlation energy                        ...      -3.965135931016 Eh
sum of pair energies estimated for screened out pairs ...      -0.003041869154 Eh
sum of MP2 pair energies for pairs that were not kept ...      -0.024496286225 Eh
sum of PNO error estimates for the kept pairs         ...      -0.012659390158 Eh
                                                          --------------------
sum of all corrections                                         -0.040197545536
Initial total correlation energy                               -4.005333476553
Thresholds for map construction and integral transformation for fine MP2 and CCSD(T) calculation:
   TCutMKN   ...     1.0e-03
   TCutDO    ...     1.0e-02
   TCutPairs ...     1.0e-04
   TCutCMO   ...     1.0e-03
   TCutCPAO  ...     1.0e-03

Time for aux screen maps:            0.015
Time for maps after fine MP2:            0.108
-----------------------------
LOCAL RI TRANSFORMATION (IJV)
-----------------------------

Orbital window:      25 to 90
Basis functions:    949 (391 shells)
Aux. functions:    2335 (753 shells)
Use SHARK:           on

Processing maps (0.0 sec)
Average map sizes:
   Aux shells -> MOs(i)           52.3
   Aux shells -> MOs(j)           66.0
   MOs        -> AO shells       348.7

Calculating integrals (10.3 sec, 63.160 MB)
Sorting integrals (0.2 sec, 63.134 MB)
Total time for the integral transformation: 10.5 sec
--------------------------------
LOCAL RI TRANSFORMATION (VABPAO)
--------------------------------

Number of PAOs:     949
Basis functions:    949 (391 shells)
Aux. functions:    2335 (753 shells)
Use SHARK:           on

Processing maps (0.0 sec)
Average map sizes:
   Aux shells -> PAOs            939.8
   PAOs       -> AO shells       386.9

Calculating integrals (44.3 sec, 15822.176 MB)
Finished


-------------------------------------
Pair Pair Term precalculation with     
RI-(ij|mn) and (im|jn) transformation  
ON THE FLY                             
-------------------------------------

   IBatch   1 (of  10)              ... done (   54.105 sec)
   IBatch   2 (of  10)              ... done (   57.072 sec)
   IBatch   3 (of  10)              ... done (   72.832 sec)
   IBatch   4 (of  10)              ... done (   90.522 sec)
   IBatch   5 (of  10)              ... done (   85.530 sec)
   IBatch   6 (of  10)              ... done (  101.058 sec)
   IBatch   7 (of  10)              ... done (  112.197 sec)
   IBatch   8 (of  10)              ... done (  135.349 sec)
   IBatch   9 (of  10)              ... done (  177.573 sec)
   IBatch  10 (of  10)              ... done (  104.945 sec)
Total EXT                           ...         991.184 sec

---------------------
RI-PNO TRANSFORMATION
---------------------

Total Number of PNOs                   ... 24139
Average number of PNOs per pair        ...    30
Maximal number of PNOs per pair        ...    81
   #pairs with  1 -  5 PNOs   :    0
   #pairs with  6 - 10 PNOs   :   50
   #pairs with 11 - 15 PNOs   :  121
   #pairs with 16 - 20 PNOs   :  125
   #pairs with 21 - 25 PNOs   :   51
   #pairs with 26 - 30 PNOs   :   72
   #pairs with 31 - 35 PNOs   :  108
   #pairs with 36 - 40 PNOs   :   55
   #pairs with 41 - 45 PNOs   :   59
   #pairs with 46 - 50 PNOs   :   77
   #pairs with 51 - 55 PNOs   :    9
   #pairs with 56 - 60 PNOs   :   23
   #pairs with 61 - 65 PNOs   :   12
   #pairs with 71 - 75 PNOs   :   23
   #pairs with 76 - 80 PNOs   :    6
   #pairs with 81 - 85 PNOs   :    1

Generation of (ij|ab)[P] integrals            ... on
Generation of (ia|bc)[P],(ja|bc)[P] integrals ... on
Storage of 3 and 4 external integrals         ... on
Generation of ALL (ka|bc)[P] integrals        ... on
Keep RI integrals in memory                   ... off

Ibatch:  1 (of  2)
Starting 2-4 index PNO integral generation ... done

Ibatch:  2 (of  2)
Starting 2-4 index PNO integral generation ... done

Timings:
Total PNO integral transformation time     ...        466.162 sec
Size of the 3-external file                ...       347 MB
Size of the 4-external file                ...      2359 MB
Size of the IKJL file                      ...         1 MB
Size of the all 3-external file            ...     10891 MB
Size of the 1-external file                ...        34 MB

Making pair/pair overlap matrices          ... done (   99.229 sec)
Size of the pair overlap file              ... 3194 MB
Redoing the guess amplitudes               ... done (    0.031 sec)

-------------------------
FINAL STARTUP INFORMATION
-------------------------

E(0)                                       ...  -1033.897340485
E(SL-MP2)                                  ...     -4.002003399
E(SL-MP2) including corrections            ...     -4.005333477
Initial E(tot)                             ...  -1037.902673962
<T|T>                                      ...      1.178328645
Number of pairs included                   ... 792
Total number of pairs                      ... 2211

------------------------------------------------
                  RHF COUPLED CLUSTER ITERATIONS
------------------------------------------------

Number of PNO amplitudes to be optimized   ...       948023
Number of non-PNO amplitudes               ...    583041888
Untruncated number of regular amplitudes   ...   1627658604

Iter       E(tot)           E(Corr)          Delta-E          Residual     Time
  0  -1037.902570710     -3.965032679      0.036970720      0.017135865   74.03
                           *** Turning on DIIS ***
  1  -1038.064467528     -4.126929497     -0.161896818      0.009226671   77.92
  2  -1038.169269773     -4.231731742     -0.104802245      0.004619047   77.37
  3  -1038.187151570     -4.249613539     -0.017881797      0.002501915   76.64
  4  -1038.192052390     -4.254514360     -0.004900821      0.001372324   77.96
  5  -1038.193523442     -4.255985411     -0.001471052      0.000727140   77.81
  6  -1038.193971178     -4.256433147     -0.000447735      0.000300447   77.07
  7  -1038.194005858     -4.256467827     -0.000034680      0.000144226   77.41
  8  -1038.194020277     -4.256482246     -0.000014419      0.000076740   78.22
  9  -1038.194004209     -4.256466179      0.000016067      0.000040311   76.95
 10  -1038.194008313     -4.256470282     -0.000004104      0.000015521   76.98
 11  -1038.194007059     -4.256469028      0.000001254      0.000004562   76.89
 12  -1038.194007608     -4.256469577     -0.000000549      0.000001563   76.85
 13  -1038.194007276     -4.256469245      0.000000332      0.000000845   77.42
               --- The Coupled-Cluster iterations have converged ---

----------------------
COUPLED CLUSTER ENERGY
----------------------

E(0)                                       ...  -1033.897340485
E(CORR)(strong-pairs)                      ...     -4.256469245
E(CORR)(weak-pairs)                        ...     -0.040197546
E(CORR)(corrected)                         ...     -4.296666790
E(TOT)                                     ...  -1038.194007276
Singles Norm <S|S>**1/2                    ...      0.117903558  
T1 diagnostic                              ...      0.010262188  

------------------
LARGEST AMPLITUDES
------------------
  40-> 91  40-> 91       0.049070
  39-> 91  39-> 91       0.048308
  35-> 91  35-> 91       0.047220
  37-> 93  37-> 93       0.047185
  42-> 93  42-> 93       0.046701
  82-> 95  82-> 95       0.046059
  28-> 92  28-> 92       0.046018
  33-> 91  33-> 91       0.045856
  86-> 95  86-> 95       0.044994
  89-> 95  89-> 95       0.044819
  31-> 91  31-> 91       0.044796
  29-> 93  29-> 93       0.042481
  78-> 92  78-> 92       0.041981
  83-> 95  83-> 95       0.039657
  88-> 95  88-> 95       0.038303
  90-> 91  90-> 91       0.038171


-------------------------------------------
DLPNO BASED TRIPLES CORRECTION
-------------------------------------------

Singles multiplier          ...  1.000000
TCutTNO                     ... 1.000e-09
TCutMP2Pairs                ... 1.000e-05
TCutDOStrong                ... 2.000e-02
TCutMKNStrong               ... 1.000e-02
TCutDOWeak                  ... 4.000e-02
TCutMKNWeak                 ... 1.000e-01

Fragment selection                          .... not used
Fock matrix occ-virt block is zero --> Setting DT_in_Triples to false.
Number of Triples that are to be computed   ...      9715

 . . . . . . . . .             (    202.000 sec)
 . . . . . . . . .
10% done               (    259.826 sec)
 . . . . . . . . .
20% done  
30% done               (    303.181 sec)
 . . . . . . . . .
40% done  
50% done               (    373.606 sec)
 . . . . . . . . .
60% done  
70% done  
80% done               (    415.623 sec)
 . . . . . . . . .
90% done               (    208.899 sec)
Triples timings:
Total time for T0               ...  1903.103 sec
Total time for Iterative (T)    ...     0.000 sec
Total time of overall (T)       ...  2090.622 sec

Triples List generation         ...     0.000 sec
TNO generation                  ...   139.842 sec
Pair density generation         ...     0.042 sec
Look up tables                  ...     0.000 sec
Generating 3-index integrals    ...  1273.852 sec
  Make 4-ind.int. from 3-ind.int...    77.678 sec
  Projecting amplitudes (D + S) ...   341.227 sec
  Downprojecting integrals      ...     0.012 sec
  Energy contr. (sum over a,b,c)...    13.121 sec
Fitting ET(->0)                 ...     0.000 sec

Everything after 3-index        ...   489.282 sec

Timing details:
 TNO integrals                  ...  1340.901 sec
   Reading 3-index integrals    ...   224.050 sec
   Sorting integrals            ...   150.260 sec
       Sorting integrals 1      ...     0.014 sec
       Sorting integrals 2      ...   122.925 sec
       Sorting integrals 3      ...     6.260 sec
       Sorting integrals 4      ...     0.886 sec
       Sorting integrals 5      ...     1.474 sec
       Sorting integrals 6      ...    18.701 sec
   Calculating local VM**-1/2   ...     5.836 sec
   Orthogonal. integrals        ...     8.008 sec
   Multipl. 3-index integrals   ...   952.746 sec
   All concerning IRIab (w/TNO) ...    41.211 sec

 Calculate W0/W1                ...    57.185 sec
 W 3-ext contribution           ...    29.222 sec
 W 3-int contribution           ...    14.761 sec
 Sorting W                      ...    11.369 sec

 V exchange contribution        ...     4.203 sec

 Timings for Triples without generation
     of 3-index integrals       ...   489.252 sec
       0 weak pairs             ...   323.229 sec
       1 weak pair              ...   166.023 sec
       2 weak pairs             ...     0.000 sec
       3 weak pairs             ...     0.000 sec
  Extra time for extrapolation  ...     0.000 sec

Number of Triples   (0, 1, 2, 3 weak pairs; overall):   5101    4614       0       0  (  9715)
Number of Atoms     (0, 1, 2, 3 weak pairs; overall):   19.4    14.9     0.0     0.0  (    54)
Number of PAOs      (0, 1, 2, 3 weak pairs; overall):  414.7   339.6     0.0     0.0  (   949)
Number of AuxFcns   (0, 1, 2, 3 weak pairs; overall):  474.0   358.2     0.0     0.0  (  2335)
Number of TNOs      (0, 1, 2, 3 weak pairs         ):   84.3    55.9     0.0     0.0
Aver. Number of NTNO, Atoms, PAOs, AuxFcns / Triples:   9715    70.8    17.3   379.0   419.0

Triples Correction (T)                     ...     -0.194527063
Final correlation energy                   ...     -4.491193854
E(CCSD)                                    ...  -1038.194007276
E(CCSD(T))                                 ...  -1038.388534339



--------------------------------------------------------------------------------
                                    TIMINGS
--------------------------------------------------------------------------------


Total execution time                   ...     5497.596 sec

Localization of occupied MO's          ...        7.985 sec (  0.1%)
Fock Matrix Formation                  ...      416.756 sec (  7.6%)
Global overlap, Fock, MKN matrices     ...        2.142 sec (  0.0%)
Differential overlap integrals         ...        6.806 sec (  0.1%)
Organizing maps                        ...        0.286 sec (  0.0%)
RI 3-index integral generations        ...       86.751 sec (  1.6%)
RI-PNO integral transformation         ...     1610.991 sec ( 29.3%)
Initial Guess                          ...      194.440 sec (  3.5%)
DIIS Solver                            ...        2.525 sec (  0.0%)
State Vector Update                    ...        0.114 sec (  0.0%)
Sigma-vector construction              ...     1076.874 sec ( 19.6%)
  <0|H|D>                              ...        0.004 sec (  0.0% of sigma)
  <D|H|D>(0-ext)                       ...       76.432 sec (  7.1% of sigma)
  <D|H|D>(2-ext Fock)                  ...        0.329 sec (  0.0% of sigma)
  <D|H|D>(2-ext)                       ...      151.080 sec ( 14.0% of sigma)
  <D|H|D>(4-ext)                       ...       51.626 sec (  4.8% of sigma)
  <D|H|D>(4-ext-corr)                  ...      264.862 sec ( 24.6% of sigma)
  CCSD doubles correction              ...        1.970 sec (  0.2% of sigma)
  <S|H|S>                              ...       10.518 sec (  1.0% of sigma)
  <S|H|D>(1-ext)                       ...       12.061 sec (  1.1% of sigma)
  <D|H|S>(1-ext)                       ...        1.965 sec (  0.2% of sigma)
  <S|H|D>(3-ext)                       ...        5.076 sec (  0.5% of sigma)
  CCSD singles correction              ...        0.011 sec (  0.0% of sigma)
  Fock-dressing                        ...      336.709 sec ( 31.3% of sigma)
  Singles amplitudes                   ...        9.953 sec (  0.9% of sigma)
  (ik|jl)-dressing                     ...       47.069 sec (  4.4% of sigma)
  (ij|ab),(ia|jb)-dressing             ...       15.532 sec (  1.4% of sigma)
  Pair energies                        ...        0.066 sec (  0.0% of sigma)
Total Time for computing (T)           ...     2090.646 sec ( 38.0% of ALL)


Maximum memory used throughout the entire MDCI-calculation: 3576.8 MB

-------------------------   --------------------
FINAL SINGLE POINT ENERGY     -1038.388534338924
-------------------------   --------------------


                            ***************************************
                            *     ORCA property calculations      *
                            ***************************************


  WARNING: The energy has been calculated at the MDCI level but the densities
           used in the property calculations are still SCF densities
           MDCI response densities have not been calculated 
           use %mdci Density linearized end
           or  %mdci Density unrelaxed end
           or  %mdci Density orbopt end

                                    ---------------------
                                    Active property flags
                                    ---------------------
   (+) Dipole Moment


------------------------------------------------------------------------------
                       ORCA ELECTRIC PROPERTIES CALCULATION
------------------------------------------------------------------------------

Dipole Moment Calculation                       ... on
Quadrupole Moment Calculation                   ... off
Polarizability Calculation                      ... off
GBWName                                         ... Fentanyl_OProt_184.gbw
Electron density                                ... Fentanyl_OProt_184.scfp
The origin for moment calculation is the CENTER OF MASS  = (-0.011128, -0.002272 -0.002829)

-------------
DIPOLE MOMENT
-------------
                                X             Y             Z
Electronic contribution:      2.45421      -4.34754       0.22588
Nuclear contribution   :      0.00817       4.63752      -0.71187
                        -----------------------------------------
Total Dipole Moment    :      2.46238       0.28998      -0.48600
                        -----------------------------------------
Magnitude (a.u.)       :      2.52658
Magnitude (Debye)      :      6.42206



--------------------
Rotational spectrum 
--------------------
 
Rotational constants in cm-1:     0.008609     0.007529     0.006986 
Rotational constants in MHz :   258.101930   225.725973   209.448945 

 Dipole components along the rotational axes: 
x,y,z [a.u.] :     2.259506    -0.819207    -0.779190 
x,y,z [Debye]:     5.743208    -2.082258    -1.980544 

 

Timings for individual modules:

Sum of individual times         ...     9302.578 sec (= 155.043 min)
GTO integral calculation        ...        3.488 sec (=   0.058 min)   0.0 %
SCF iterations                  ...     3798.317 sec (=  63.305 min)  40.8 %
MDCI module                     ...     5500.773 sec (=  91.680 min)  59.1 %
                             ****ORCA TERMINATED NORMALLY****
TOTAL RUN TIME: 0 days 2 hours 35 minutes 5 seconds 128 msec
