
Lmod is automatically replacing "intel/2020.1.217" with "gcc/10.3.0".


The following have been reloaded with a version change:
  1) gcccore/.9.3.0 => gcccore/.10.3.0        3) openmpi/4.0.3 => openmpi/4.1.1
  2) libfabric/1.10.1 => libfabric/1.12.1     4) ucx/1.8.0 => ucx/1.9.0

To execute ORCA, run: 
   ${EBROOTORCA}/orca orca.inp > orca.out
cp: cannot stat '/project/6006388/cieritan/Fentanyl_analogs/Fentanyl/O-Prot/CCSDT/*.hess': No such file or directory
cp: cannot stat '/project/6006388/cieritan/Fentanyl_analogs/Fentanyl/O-Prot/CCSDT/*.gbw': No such file or directory

                                 *****************
                                 * O   R   C   A *
                                 *****************

                                            #,                                       
                                            ###                                      
                                            ####                                     
                                            #####                                    
                                            ######                                   
                                           ########,                                 
                                     ,,################,,,,,                         
                               ,,#################################,,                 
                          ,,##########################################,,             
                       ,#########################################, ''#####,          
                    ,#############################################,,   '####,        
                  ,##################################################,,,,####,       
                ,###########''''           ''''###############################       
              ,#####''   ,,,,##########,,,,          '''####'''          '####       
            ,##' ,,,,###########################,,,                        '##       
           ' ,,###''''                  '''############,,,                           
         ,,##''                                '''############,,,,        ,,,,,,###''
      ,#''                                            '''#######################'''  
     '                                                          ''''####''''         
             ,#######,   #######,   ,#######,      ##                                
            ,#'     '#,  ##    ##  ,#'     '#,    #''#        ######   ,####,        
            ##       ##  ##   ,#'  ##            #'  '#       #        #'  '#        
            ##       ##  #######   ##           ,######,      #####,   #    #        
            '#,     ,#'  ##    ##  '#,     ,#' ,#      #,         ##   #,  ,#        
             '#######'   ##     ##  '#######'  #'      '#     #####' # '####'        



                  #######################################################
                  #                        -***-                        #
                  #          Department of theory and spectroscopy      #
                  #    Directorship and core code : Frank Neese         #
                  #        Max Planck Institute fuer Kohlenforschung    #
                  #                Kaiser Wilhelm Platz 1               #
                  #                 D-45470 Muelheim/Ruhr               #
                  #                      Germany                        #
                  #                                                     #
                  #                  All rights reserved                #
                  #                        -***-                        #
                  #######################################################


                         Program Version 5.0.4 -  RELEASE  -


 With contributions from (in alphabetic order):
   Daniel Aravena         : Magnetic Suceptibility
   Michael Atanasov       : Ab Initio Ligand Field Theory (pilot matlab implementation)
   Alexander A. Auer      : GIAO ZORA, VPT2 properties, NMR spectrum
   Ute Becker             : Parallelization
   Giovanni Bistoni       : ED, misc. LED, open-shell LED, HFLD
   Martin Brehm           : Molecular dynamics
   Dmytro Bykov           : SCF Hessian
   Vijay G. Chilkuri      : MRCI spin determinant printing, contributions to CSF-ICE
   Dipayan Datta          : RHF DLPNO-CCSD density
   Achintya Kumar Dutta   : EOM-CC, STEOM-CC
   Dmitry Ganyushin       : Spin-Orbit,Spin-Spin,Magnetic field MRCI
   Miquel Garcia          : C-PCM and meta-GGA Hessian, CC/C-PCM, Gaussian charge scheme
   Yang Guo               : DLPNO-NEVPT2, F12-NEVPT2, CIM, IAO-localization
   Andreas Hansen         : Spin unrestricted coupled pair/coupled cluster methods
   Benjamin Helmich-Paris : MC-RPA, TRAH-SCF, COSX integrals
   Lee Huntington         : MR-EOM, pCC
   Robert Izsak           : Overlap fitted RIJCOSX, COSX-SCS-MP3, EOM
   Marcus Kettner         : VPT2
   Christian Kollmar      : KDIIS, OOCD, Brueckner-CCSD(T), CCSD density, CASPT2, CASPT2-K
   Simone Kossmann        : Meta GGA functionals, TD-DFT gradient, OOMP2, MP2 Hessian
   Martin Krupicka        : Initial AUTO-CI
   Lucas Lang             : DCDCAS
   Marvin Lechner         : AUTO-CI (C++ implementation), FIC-MRCC
   Dagmar Lenk            : GEPOL surface, SMD
   Dimitrios Liakos       : Extrapolation schemes; Compound Job, initial MDCI parallelization
   Dimitrios Manganas     : Further ROCIS development; embedding schemes
   Dimitrios Pantazis     : SARC Basis sets
   Anastasios Papadopoulos: AUTO-CI, single reference methods and gradients
   Taras Petrenko         : DFT Hessian,TD-DFT gradient, ASA, ECA, R-Raman, ABS, FL, XAS/XES, NRVS
   Peter Pinski           : DLPNO-MP2, DLPNO-MP2 Gradient
   Christoph Reimann      : Effective Core Potentials
   Marius Retegan         : Local ZFS, SOC
   Christoph Riplinger    : Optimizer, TS searches, QM/MM, DLPNO-CCSD(T), (RO)-DLPNO pert. Triples
   Tobias Risthaus        : Range-separated hybrids, TD-DFT gradient, RPA, STAB
   Michael Roemelt        : Original ROCIS implementation
   Masaaki Saitow         : Open-shell DLPNO-CCSD energy and density
   Barbara Sandhoefer     : DKH picture change effects
   Avijit Sen             : IP-ROCIS
   Kantharuban Sivalingam : CASSCF convergence, NEVPT2, FIC-MRCI
   Bernardo de Souza      : ESD, SOC TD-DFT
   Georgi Stoychev        : AutoAux, RI-MP2 NMR, DLPNO-MP2 response
   Willem Van den Heuvel  : Paramagnetic NMR
   Boris Wezisla          : Elementary symmetry handling
   Frank Wennmohs         : Technical directorship


 We gratefully acknowledge several colleagues who have allowed us to
 interface, adapt or use parts of their codes:
   Stefan Grimme, W. Hujo, H. Kruse, P. Pracht,  : VdW corrections, initial TS optimization,
                  C. Bannwarth, S. Ehlert          DFT functionals, gCP, sTDA/sTD-DF
   Ed Valeev, F. Pavosevic, A. Kumar             : LibInt (2-el integral package), F12 methods
   Garnet Chan, S. Sharma, J. Yang, R. Olivares  : DMRG
   Ulf Ekstrom                                   : XCFun DFT Library
   Mihaly Kallay                                 : mrcc  (arbitrary order and MRCC methods)
   Jiri Pittner, Ondrej Demel                    : Mk-CCSD
   Frank Weinhold                                : gennbo (NPA and NBO analysis)
   Christopher J. Cramer and Donald G. Truhlar   : smd solvation model
   Lars Goerigk                                  : TD-DFT with DH, B97 family of functionals
   V. Asgeirsson, H. Jonsson                     : NEB implementation
   FAccTs GmbH                                   : IRC, NEB, NEB-TS, DLPNO-Multilevel, CI-OPT
                                                   MM, QMMM, 2- and 3-layer-ONIOM, Crystal-QMMM,
                                                   LR-CPCM, SF, NACMEs, symmetry and pop. for TD-DFT,
                                                   nearIR, NL-DFT gradient (VV10), updates on ESD,
                                                   ML-optimized integration grids
   S Lehtola, MJT Oliveira, MAL Marques          : LibXC Library
   Liviu Ungur et al                             : ANISO software


 Your calculation uses the libint2 library for the computation of 2-el integrals
 For citations please refer to: http://libint.valeyev.net

 Your ORCA version has been built with support for libXC version: 5.1.0
 For citations please refer to: https://tddft.org/programs/libxc/

 This ORCA versions uses:
   CBLAS   interface :  Fast vector & matrix operations
   LAPACKE interface :  Fast linear algebra routines
   SCALAPACK package :  Parallel linear algebra routines
   Shared memory     :  Shared parallel matrices
   BLAS/LAPACK       :  OpenBLAS 0.3.15  USE64BITINT DYNAMIC_ARCH NO_AFFINITY SkylakeX SINGLE_THREADED
        Core in use  :  SkylakeX
   Copyright (c) 2011-2014, The OpenBLAS Project


================================================================================

----- Orbital basis set information -----
Your calculation utilizes the basis: def2-TZVP
   F. Weigend and R. Ahlrichs, Phys. Chem. Chem. Phys. 7, 3297 (2005).

----- AuxC basis set information -----
Your calculation utilizes the auxiliary basis: def2-TZVP/C
  H-La, Hf-Rn : A. Hellweg, C. Hattig, S. Hofener and W. Klopper, Theor. Chem. Acc. 117, 587 (2007).
        Ce-Lu : J. Chmela and M. E. Harding, Mol. Phys. (2018).

================================================================================
                                        WARNINGS
                       Please study these warnings very carefully!
================================================================================


WARNING: Post HF methods need fully converged wavefunctions
  ===> : Setting SCFConvForced true
         You can overwrite this default with %scf ConvForced false 


WARNING: MDCI localization with Augmented Hessian Foster-Boys
  ===> : Switching off randomization!

INFO   : the flag for use of the SHARK integral package has been found!

================================================================================
                                       INPUT FILE
================================================================================
NAME = Fentanyl_OProt_12.inp
|  1> ! DLPNO-CCSD(T) def2-TZVP def2-TZVP/C VeryTightSCF
|  2> %maxcore 3400
|  3> 
|  4> %pal nprocs 8 
|  5> end
|  6> 
|  7> *xyz 1 1
|  8> O             2.320567         1.841102         1.219315
|  9> N            -1.957398        -0.485124        -1.097046
| 10> N             2.122526         0.005523        -0.035027
| 11> C             0.642814         0.213218        -0.164734
| 12> C             0.245059         0.424682        -1.620430
| 13> C            -0.131228        -0.948084         0.445927
| 14> C            -1.266741         0.640923        -1.689842
| 15> C            -1.625190        -0.656301         0.307479
| 16> C            -3.369430        -0.584357        -1.447366
| 17> C            -4.257166         0.642677        -1.174459
| 18> C             2.718383        -1.145788        -0.686258
| 19> C             2.886112         0.809185         0.638699
| 20> C            -4.292166         1.059548         0.275265
| 21> C             4.369510         0.595588         0.769566
| 22> C             2.815245        -2.342109         0.008672
| 23> C             3.180468        -1.024217        -1.988174
| 24> C             5.087533         1.656355         1.598676
| 25> C            -3.757676         2.277884         0.683924
| 26> C            -4.828167         0.210958         1.243113
| 27> C             3.388215        -3.440929        -0.617634
| 28> C             3.752004        -2.128519        -2.606307
| 29> C             3.854963        -3.333891        -1.922292
| 30> C            -3.732209         2.632822         2.028069
| 31> C            -4.803881         0.557954         2.586307
| 32> C            -4.247290         1.768769         2.985019
| 33> H             0.417460         1.117874         0.397526
| 34> H             0.501199        -0.457796        -2.210458
| 35> H             0.767600         1.290913        -2.037670
| 36> H             0.129508        -1.066059         1.502080
| 37> H             0.102275        -1.875300        -0.081771
| 38> H            -1.517737         1.595602        -1.195593
| 39> H            -1.568382         0.729683        -2.736322
| 40> H            -2.197184        -1.497052         0.703528
| 41> H            -1.879359         0.222260         0.919755
| 42> H            -3.427576        -0.814738        -2.516578
| 43> H            -3.772824        -1.451484        -0.917841
| 44> H            -5.267770         0.393835        -1.514402
| 45> H            -3.925740         1.484226        -1.789074
| 46> H             4.779815         0.544255        -0.241979
| 47> H             4.517455        -0.400641         1.193716
| 48> H             2.443713        -2.413814         1.024575
| 49> H             3.091205        -0.079386        -2.512249
| 50> H             4.733447         1.681898         2.633878
| 51> H             5.002514         2.653903         1.156771
| 52> H             6.150859         1.421848         1.638264
| 53> H            -3.358872         2.961195        -0.060302
| 54> H            -5.270375        -0.734259         0.942050
| 55> H             3.466941        -4.381494        -0.085456
| 56> H             4.114409        -2.046314        -3.624127
| 57> H             4.299748        -4.194151        -2.408645
| 58> H            -3.318593         3.590291         2.326490
| 59> H            -5.228147        -0.113265         3.325120
| 60> H            -4.233679         2.043473         4.033812
| 61> H             2.978307         2.369841         1.692935
| 62> *
| 63> 
| 64> 
| 65>                          ****END OF INPUT****
================================================================================

                       ****************************
                       * Single Point Calculation *
                       ****************************

---------------------------------
CARTESIAN COORDINATES (ANGSTROEM)
---------------------------------
  O      2.320567    1.841102    1.219315
  N     -1.957398   -0.485124   -1.097046
  N      2.122526    0.005523   -0.035027
  C      0.642814    0.213218   -0.164734
  C      0.245059    0.424682   -1.620430
  C     -0.131228   -0.948084    0.445927
  C     -1.266741    0.640923   -1.689842
  C     -1.625190   -0.656301    0.307479
  C     -3.369430   -0.584357   -1.447366
  C     -4.257166    0.642677   -1.174459
  C      2.718383   -1.145788   -0.686258
  C      2.886112    0.809185    0.638699
  C     -4.292166    1.059548    0.275265
  C      4.369510    0.595588    0.769566
  C      2.815245   -2.342109    0.008672
  C      3.180468   -1.024217   -1.988174
  C      5.087533    1.656355    1.598676
  C     -3.757676    2.277884    0.683924
  C     -4.828167    0.210958    1.243113
  C      3.388215   -3.440929   -0.617634
  C      3.752004   -2.128519   -2.606307
  C      3.854963   -3.333891   -1.922292
  C     -3.732209    2.632822    2.028069
  C     -4.803881    0.557954    2.586307
  C     -4.247290    1.768769    2.985019
  H      0.417460    1.117874    0.397526
  H      0.501199   -0.457796   -2.210458
  H      0.767600    1.290913   -2.037670
  H      0.129508   -1.066059    1.502080
  H      0.102275   -1.875300   -0.081771
  H     -1.517737    1.595602   -1.195593
  H     -1.568382    0.729683   -2.736322
  H     -2.197184   -1.497052    0.703528
  H     -1.879359    0.222260    0.919755
  H     -3.427576   -0.814738   -2.516578
  H     -3.772824   -1.451484   -0.917841
  H     -5.267770    0.393835   -1.514402
  H     -3.925740    1.484226   -1.789074
  H      4.779815    0.544255   -0.241979
  H      4.517455   -0.400641    1.193716
  H      2.443713   -2.413814    1.024575
  H      3.091205   -0.079386   -2.512249
  H      4.733447    1.681898    2.633878
  H      5.002514    2.653903    1.156771
  H      6.150859    1.421848    1.638264
  H     -3.358872    2.961195   -0.060302
  H     -5.270375   -0.734259    0.942050
  H      3.466941   -4.381494   -0.085456
  H      4.114409   -2.046314   -3.624127
  H      4.299748   -4.194151   -2.408645
  H     -3.318593    3.590291    2.326490
  H     -5.228147   -0.113265    3.325120
  H     -4.233679    2.043473    4.033812
  H      2.978307    2.369841    1.692935

----------------------------
CARTESIAN COORDINATES (A.U.)
----------------------------
  NO LB      ZA    FRAG     MASS         X           Y           Z
   0 O     8.0000    0    15.999    4.385236    3.479179    2.304171
   1 N     7.0000    0    14.007   -3.698946   -0.916752   -2.073116
   2 N     7.0000    0    14.007    4.010993    0.010437   -0.066191
   3 C     6.0000    0    12.011    1.214742    0.402924   -0.311302
   4 C     6.0000    0    12.011    0.463094    0.802533   -3.062169
   5 C     6.0000    0    12.011   -0.247985   -1.791619    0.842680
   6 C     6.0000    0    12.011   -2.393794    1.211169   -3.193339
   7 C     6.0000    0    12.011   -3.071164   -1.240229    0.581051
   8 C     6.0000    0    12.011   -6.367300   -1.104275   -2.735125
   9 C     6.0000    0    12.011   -8.044878    1.214484   -2.219406
  10 C     6.0000    0    12.011    5.136999   -2.165226   -1.296840
  11 C     6.0000    0    12.011    5.453961    1.529138    1.206966
  12 C     6.0000    0    12.011   -8.111018    2.002256    0.520175
  13 C     6.0000    0    12.011    8.257177    1.125498    1.454269
  14 C     6.0000    0    12.011    5.320042   -4.425945    0.016388
  15 C     6.0000    0    12.011    6.010213   -1.935490   -3.757104
  16 C     6.0000    0    12.011    9.614044    3.130057    3.021060
  17 C     6.0000    0    12.011   -7.100979    4.304577    1.292429
  18 C     6.0000    0    12.011   -9.123913    0.398653    2.349143
  19 C     6.0000    0    12.011    6.402798   -6.502413   -1.167159
  20 C     6.0000    0    12.011    7.090260   -4.022318   -4.925206
  21 C     6.0000    0    12.011    7.284824   -6.300141   -3.632605
  22 C     6.0000    0    12.011   -7.052853    4.975313    3.832495
  23 C     6.0000    0    12.011   -9.078019    1.054380    4.887412
  24 C     6.0000    0    12.011   -8.026215    3.342489    5.640868
  25 H     1.0000    0     1.008    0.788885    2.112476    0.751215
  26 H     1.0000    0     1.008    0.947129   -0.865109   -4.177160
  27 H     1.0000    0     1.008    1.450554    2.439472   -3.850638
  28 H     1.0000    0     1.008    0.244735   -2.014560    2.838520
  29 H     1.0000    0     1.008    0.193272   -3.543803   -0.154525
  30 H     1.0000    0     1.008   -2.868107    3.015251   -2.259343
  31 H     1.0000    0     1.008   -2.963812    1.378901   -5.170899
  32 H     1.0000    0     1.008   -4.152076   -2.829018    1.329475
  33 H     1.0000    0     1.008   -3.551474    0.420011    1.738085
  34 H     1.0000    0     1.008   -6.477180   -1.539632   -4.755643
  35 H     1.0000    0     1.008   -7.129604   -2.742907   -1.734468
  36 H     1.0000    0     1.008   -9.954643    0.744240   -2.861805
  37 H     1.0000    0     1.008   -7.418573    2.804781   -3.380860
  38 H     1.0000    0     1.008    9.032541    1.028493   -0.457274
  39 H     1.0000    0     1.008    8.536753   -0.757102    2.255796
  40 H     1.0000    0     1.008    4.617948   -4.561447    1.936166
  41 H     1.0000    0     1.008    5.841531   -0.150018   -4.747463
  42 H     1.0000    0     1.008    8.944918    3.178327    4.977308
  43 H     1.0000    0     1.008    9.453381    5.015150    2.185980
  44 H     1.0000    0     1.008   11.623439    2.686903    3.095870
  45 H     1.0000    0     1.008   -6.347348    5.595848   -0.113954
  46 H     1.0000    0     1.008   -9.959565   -1.387548    1.780217
  47 H     1.0000    0     1.008    6.551569   -8.279824   -0.161488
  48 H     1.0000    0     1.008    7.775106   -3.866973   -6.848608
  49 H     1.0000    0     1.008    8.125346   -7.925797   -4.551679
  50 H     1.0000    0     1.008   -6.271232    6.784667    4.396429
  51 H     1.0000    0     1.008   -9.879766   -0.214040    6.283566
  52 H     1.0000    0     1.008   -8.000494    3.861604    7.622800
  53 H     1.0000    0     1.008    5.628185    4.478350    3.199184

--------------------------------
INTERNAL COORDINATES (ANGSTROEM)
--------------------------------
 O      0   0   0     0.000000000000     0.00000000     0.00000000
 N      1   0   0     5.392387247465     0.00000000     0.00000000
 N      1   2   0     2.232026961281    48.19783531     0.00000000
 C      3   1   2     1.499836231666    91.27518000     0.00000000
 C      4   3   1     1.523803434744   111.06077570   117.99250103
 C      4   3   1     1.523374612460   111.16534165   241.93032165
 C      2   1   3     1.447893654753    57.44869600   261.47267211
 C      2   1   3     1.453394026484    56.93123830    99.47120617
 C      2   1   3     1.458220031310   154.25806174   182.20798100
 C      9   2   1     1.538884619944   117.49901428    10.81216812
 C      3   1   2     1.450746152341   150.28089688   180.36545105
 C      3   1   2     1.297244353511    31.39824341   180.16693994
 C     10   9   2     1.508875775807   113.83234122   300.65747638
 C     12   3   1     1.504400038720   122.52194931   180.01314335
 C     11   3   1     1.386900820890   119.22935805    89.67070774
 C     11   3   1     1.386826350457   119.25474639   269.80151361
 C     14  12   3     1.525846338567   114.36618430   179.76635926
 C     13  10   9     1.391770220718   121.00128237   114.12007530
 C     13  10   9     1.394321272593   120.51047863   296.00700020
 C     15  11   3     1.388509711502   119.04054047   180.10462148
 C     16  11   3     1.388605311883   119.03334525   179.89389366
 C     21  16  11     1.389747723254   120.07619574     0.00000000
 C     18  13  10     1.390451485295   120.95326205   183.13400173
 C     19  13  10     1.387503569526   120.86627959   176.76507246
 C     23  18  13     1.388398115048   120.04204649   359.85142647
 H      4   3   1     1.088725498577   105.93910566   359.88882543
 H      5   4   3     1.092020219990   110.04684710    61.39084178
 H      5   4   3     1.094300899955   110.45368884   301.28779946
 H      6   4   3     1.094239700308   110.36655154    58.31916233
 H      6   4   3     1.092116450233   110.17499787   298.02278814
 H      7   2   1     1.103944318821   112.38340129   283.36143332
 H      7   2   1     1.092696673776   108.88063578   164.74790381
 H      8   2   1     1.091280986015   108.76275326   194.62025495
 H      8   2   1     1.100614924239   113.00414077    75.97967386
 H      9   2   1     1.095294783801   107.47180039   132.84992169
 H      9   2   1     1.093175502374   107.15351167   247.14334160
 H     10   9   2     1.094899095364   107.22825640   178.93716832
 H     10   9   2     1.093526182175   109.82265243    63.87771071
 H     14  12   3     1.092798497866   107.23964265    56.18466736
 H     14  12   3     1.092823483444   107.25849462   303.37794446
 H     15  11   3     1.084083271459   120.17697809     0.34969486
 H     16  11   3     1.084125503507   120.18374009   359.68646119
 H     17  14  12     1.094382255452   112.20773484    61.99495251
 H     17  14  12     1.094353814673   112.19288640   298.07829517
 H     17  14  12     1.089597597771   109.22912353   180.03118817
 H     18  13  10     1.086200208163   119.37412351     3.37669279
 H     19  13  10     1.086104056857   119.58815249   356.77934034
 H     20  15  11     1.083546826854   119.69508332   180.15631680
 H     21  16  11     1.083537077561   119.70117180   179.85029181
 H     22  21  16     1.083706696682   119.86899253   179.87429019
 H     23  18  13     1.084841082674   119.88109342   180.48470073
 H     24  19  13     1.084611097899   119.85521651   179.82162370
 H     25  23  18     1.084257489615   120.28970957   180.28525137
 H      1   2   3     0.967730717773   170.10999289   181.10803754

---------------------------
INTERNAL COORDINATES (A.U.)
---------------------------
 O      0   0   0     0.000000000000     0.00000000     0.00000000
 N      1   0   0    10.190135105758     0.00000000     0.00000000
 N      1   2   0     4.217919680350    48.19783531     0.00000000
 C      3   1   2     2.834279723581    91.27518000     0.00000000
 C      4   3   1     2.879571173594   111.06077570   117.99250103
 C      4   3   1     2.878760816919   111.16534165   241.93032165
 C      2   1   3     2.736122478525    57.44869600   261.47267211
 C      2   1   3     2.746516674731    56.93123830    99.47120617
 C      2   1   3     2.755636502173   154.25806174   182.20798100
 C      9   2   1     2.908070483398   117.49901428    10.81216812
 C      3   1   2     2.741512917764   150.28089688   180.36545105
 C      3   1   2     2.451436556911    31.39824341   180.16693994
 C     10   9   2     2.851361986383   113.83234122   300.65747638
 C     12   3   1     2.842904069042   122.52194931   180.01314335
 C     11   3   1     2.620862726392   119.22935805    89.67070774
 C     11   3   1     2.620721997669   119.25474639   269.80151361
 C     14  12   3     2.883431702338   114.36618430   179.76635926
 C     13  10   9     2.630064558504   121.00128237   114.12007530
 C     13  10   9     2.634885347901   120.51047863   296.00700020
 C     15  11   3     2.623903089029   119.04054047   180.10462148
 C     16  11   3     2.624083747567   119.03334525   179.89389366
 C     21  16  11     2.626242592191   120.07619574     0.00000000
 C     18  13  10     2.627572509711   120.95326205   183.13400173
 C     19  13  10     2.622001756243   120.86627959   176.76507246
 C     23  18  13     2.623692202294   120.04204649   359.85142647
 H      4   3   1     2.057393027328   105.93910566   359.88882543
 H      5   4   3     2.063619148486   110.04684710    61.39084178
 H      5   4   3     2.067929009018   110.45368884   301.28779946
 H      6   4   3     2.067813358446   110.36655154    58.31916233
 H      6   4   3     2.063800997290   110.17499787   298.02278814
 H      7   2   1     2.086152429671   112.38340129   283.36143332
 H      7   2   1     2.064897460883   108.88063578   164.74790381
 H      8   2   1     2.062222198724   108.76275326   194.62025495
 H      8   2   1     2.079860785719   113.00414077    75.97967386
 H      9   2   1     2.069807177296   107.47180039   132.84992169
 H      9   2   1     2.065802315798   107.15351167   247.14334160
 H     10   9   2     2.069059434516   107.22825640   178.93716832
 H     10   9   2     2.066465004583   109.82265243    63.87771071
 H     14  12   3     2.065089880528   107.23964265    56.18466736
 H     14  12   3     2.065137096426   107.25849462   303.37794446
 H     15  11   3     2.048620489424   120.17697809     0.34969486
 H     16  11   3     2.048700296428   120.18374009   359.68646119
 H     17  14  12     2.068082748628   112.20773484    61.99495251
 H     17  14  12     2.068029003345   112.19288640   298.07829517
 H     17  14  12     2.059041055966   109.22912353   180.03118817
 H     18  13  10     2.052620920036   119.37412351     3.37669279
 H     19  13  10     2.052439220401   119.58815249   356.77934034
 H     20  15  11     2.047606756033   119.69508332   180.15631680
 H     21  16  11     2.047588332540   119.70117180   179.85029181
 H     22  21  16     2.047908866226   119.86899253   179.87429019
 H     23  18  13     2.050052545081   119.88109342   180.48470073
 H     24  19  13     2.049617936841   119.85521651   179.82162370
 H     25  23  18     2.048949714025   120.28970957   180.28525137
 H      1   2   3     1.828746027974   170.10999289   181.10803754

---------------------
BASIS SET INFORMATION
---------------------
There are 4 groups of distinct atoms

 Group   1 Type O   : 11s6p2d1f contracted to 5s3p2d1f pattern {62111/411/11/1}
 Group   2 Type N   : 11s6p2d1f contracted to 5s3p2d1f pattern {62111/411/11/1}
 Group   3 Type C   : 11s6p2d1f contracted to 5s3p2d1f pattern {62111/411/11/1}
 Group   4 Type H   : 5s1p contracted to 3s1p pattern {311/1}

Atom   0O    basis set group =>   1
Atom   1N    basis set group =>   2
Atom   2N    basis set group =>   2
Atom   3C    basis set group =>   3
Atom   4C    basis set group =>   3
Atom   5C    basis set group =>   3
Atom   6C    basis set group =>   3
Atom   7C    basis set group =>   3
Atom   8C    basis set group =>   3
Atom   9C    basis set group =>   3
Atom  10C    basis set group =>   3
Atom  11C    basis set group =>   3
Atom  12C    basis set group =>   3
Atom  13C    basis set group =>   3
Atom  14C    basis set group =>   3
Atom  15C    basis set group =>   3
Atom  16C    basis set group =>   3
Atom  17C    basis set group =>   3
Atom  18C    basis set group =>   3
Atom  19C    basis set group =>   3
Atom  20C    basis set group =>   3
Atom  21C    basis set group =>   3
Atom  22C    basis set group =>   3
Atom  23C    basis set group =>   3
Atom  24C    basis set group =>   3
Atom  25H    basis set group =>   4
Atom  26H    basis set group =>   4
Atom  27H    basis set group =>   4
Atom  28H    basis set group =>   4
Atom  29H    basis set group =>   4
Atom  30H    basis set group =>   4
Atom  31H    basis set group =>   4
Atom  32H    basis set group =>   4
Atom  33H    basis set group =>   4
Atom  34H    basis set group =>   4
Atom  35H    basis set group =>   4
Atom  36H    basis set group =>   4
Atom  37H    basis set group =>   4
Atom  38H    basis set group =>   4
Atom  39H    basis set group =>   4
Atom  40H    basis set group =>   4
Atom  41H    basis set group =>   4
Atom  42H    basis set group =>   4
Atom  43H    basis set group =>   4
Atom  44H    basis set group =>   4
Atom  45H    basis set group =>   4
Atom  46H    basis set group =>   4
Atom  47H    basis set group =>   4
Atom  48H    basis set group =>   4
Atom  49H    basis set group =>   4
Atom  50H    basis set group =>   4
Atom  51H    basis set group =>   4
Atom  52H    basis set group =>   4
Atom  53H    basis set group =>   4
---------------------------------
AUXILIARY/C BASIS SET INFORMATION
---------------------------------
There are 4 groups of distinct atoms

 Group   1 Type O   : 8s6p5d3f1g contracted to 8s6p4d3f1g pattern {11111111/111111/2111/111/1}
 Group   2 Type N   : 8s6p5d3f1g contracted to 8s6p4d3f1g pattern {11111111/111111/2111/111/1}
 Group   3 Type C   : 8s6p5d3f1g contracted to 8s6p4d3f1g pattern {11111111/111111/2111/111/1}
 Group   4 Type H   : 4s3p2d contracted to 4s2p1d pattern {1111/21/2}

Atom   0O    basis set group =>   1
Atom   1N    basis set group =>   2
Atom   2N    basis set group =>   2
Atom   3C    basis set group =>   3
Atom   4C    basis set group =>   3
Atom   5C    basis set group =>   3
Atom   6C    basis set group =>   3
Atom   7C    basis set group =>   3
Atom   8C    basis set group =>   3
Atom   9C    basis set group =>   3
Atom  10C    basis set group =>   3
Atom  11C    basis set group =>   3
Atom  12C    basis set group =>   3
Atom  13C    basis set group =>   3
Atom  14C    basis set group =>   3
Atom  15C    basis set group =>   3
Atom  16C    basis set group =>   3
Atom  17C    basis set group =>   3
Atom  18C    basis set group =>   3
Atom  19C    basis set group =>   3
Atom  20C    basis set group =>   3
Atom  21C    basis set group =>   3
Atom  22C    basis set group =>   3
Atom  23C    basis set group =>   3
Atom  24C    basis set group =>   3
Atom  25H    basis set group =>   4
Atom  26H    basis set group =>   4
Atom  27H    basis set group =>   4
Atom  28H    basis set group =>   4
Atom  29H    basis set group =>   4
Atom  30H    basis set group =>   4
Atom  31H    basis set group =>   4
Atom  32H    basis set group =>   4
Atom  33H    basis set group =>   4
Atom  34H    basis set group =>   4
Atom  35H    basis set group =>   4
Atom  36H    basis set group =>   4
Atom  37H    basis set group =>   4
Atom  38H    basis set group =>   4
Atom  39H    basis set group =>   4
Atom  40H    basis set group =>   4
Atom  41H    basis set group =>   4
Atom  42H    basis set group =>   4
Atom  43H    basis set group =>   4
Atom  44H    basis set group =>   4
Atom  45H    basis set group =>   4
Atom  46H    basis set group =>   4
Atom  47H    basis set group =>   4
Atom  48H    basis set group =>   4
Atom  49H    basis set group =>   4
Atom  50H    basis set group =>   4
Atom  51H    basis set group =>   4
Atom  52H    basis set group =>   4
Atom  53H    basis set group =>   4


           ************************************************************
           *        Program running with 8 parallel MPI-processes     *
           *              working on a common directory               *
           ************************************************************
------------------------------------------------------------------------------
                           ORCA GTO INTEGRAL CALCULATION
------------------------------------------------------------------------------
------------------------------------------------------------------------------
                   ___                                                        
                  /   \      - P O W E R E D   B Y -                         
                 /     \                                                     
                 |  |  |   _    _      __       _____    __    __             
                 |  |  |  | |  | |    /  \     |  _  \  |  |  /  |          
                  \  \/   | |  | |   /    \    | | | |  |  | /  /          
                 / \  \   | |__| |  /  /\  \   | |_| |  |  |/  /          
                |  |  |   |  __  | /  /__\  \  |    /   |      \           
                |  |  |   | |  | | |   __   |  |    \   |  |\   \          
                \     /   | |  | | |  |  |  |  | |\  \  |  | \   \       
                 \___/    |_|  |_| |__|  |__|  |_| \__\ |__|  \__/        
                                                                              
                      - O R C A' S   B I G   F R I E N D -                    
                                      &                                       
                       - I N T E G R A L  F E E D E R -                       
                                                                              
 v1 FN, 2020, v2 2021                                                         
------------------------------------------------------------------------------


Reading SHARK input file Fentanyl_OProt_12.SHARKINP.tmp ... ok
----------------------
SHARK INTEGRAL PACKAGE
----------------------

Number of atoms                             ...     54
Number of basis functions                   ...    949
Number of shells                            ...    391
Maximum angular momentum                    ...      3
Integral batch strategy                     ... SHARK/LIBINT Hybrid
RI-J (if used) integral strategy            ... SPLIT-RIJ (Revised 2003 algorithm where possible)
Printlevel                                  ...      1
Contraction scheme used                     ... SEGMENTED contraction
Coulomb Range Separation                    ... NOT USED
Exchange Range Separation                   ... NOT USED
Finite Nucleus Model                        ... NOT USED
Auxiliary Coulomb fitting basis             ... NOT available
Auxiliary J/K fitting basis                 ... NOT available
Auxiliary Correlation fitting basis         ... AVAILABLE
   # of basis functions in Aux-C            ...   2335
   # of shells in Aux-C                     ...    753
   Maximum angular momentum in Aux-C        ...      4
Auxiliary 'external' fitting basis          ... NOT available
Integral threshold                          ...     1.000000e-12
Primitive cut-off                           ...     1.000000e-14
Primitive pair pre-selection threshold      ...     1.000000e-14

Calculating pre-screening integrals         ... done (  0.1 sec) Dimension = 391
Organizing shell pair data                  ... done (  0.6 sec)
Shell pair information
Total number of shell pairs                 ...     76636
Shell pairs after pre-screening             ...     54457
Total number of primitive shell pairs       ...    228112
Primitive shell pairs kept                  ...    109026
          la=0 lb=0:  15804 shell pairs
          la=1 lb=0:  16238 shell pairs
          la=1 lb=1:   4198 shell pairs
          la=2 lb=0:   7329 shell pairs
          la=2 lb=1:   3757 shell pairs
          la=2 lb=2:    870 shell pairs
          la=3 lb=0:   3452 shell pairs
          la=3 lb=1:   1815 shell pairs
          la=3 lb=2:    793 shell pairs
          la=3 lb=3:    201 shell pairs

Calculating one electron integrals          ... done (  0.1 sec)
Calculating RI/C V-Matrix + Cholesky decomp.... done (  0.3 sec)
Calculating Nuclear repulsion               ... done (  0.0 sec) ENN=   2208.914911198110 Eh

SHARK setup successfully completed in   1.6 seconds

Maximum memory used throughout the entire GTOINT-calculation: 81.1 MB
[1704049789.007753] [gra1290:215865:0]          mpool.c:42   UCX  WARN  object 0xae022c0 was not returned to mpool ucp_requests
[1704049789.007775] [gra1290:215865:0]          mpool.c:42   UCX  WARN  object 0xae02480 was not returned to mpool ucp_requests
[1704049789.007781] [gra1290:215865:0]          mpool.c:42   UCX  WARN  object 0xae02640 was not returned to mpool ucp_requests
[1704049789.007787] [gra1290:215865:0]          mpool.c:42   UCX  WARN  object 0xae02800 was not returned to mpool ucp_requests
[1704049789.007792] [gra1290:215865:0]          mpool.c:42   UCX  WARN  object 0xae029c0 was not returned to mpool ucp_requests
[1704049789.007797] [gra1290:215865:0]          mpool.c:42   UCX  WARN  object 0xae02b80 was not returned to mpool ucp_requests
[1704049789.007753] [gra1290:215866:0]          mpool.c:42   UCX  WARN  object 0xb27c400 was not returned to mpool ucp_requests
[1704049789.007775] [gra1290:215866:0]          mpool.c:42   UCX  WARN  object 0xb27c5c0 was not returned to mpool ucp_requests
[1704049789.007781] [gra1290:215866:0]          mpool.c:42   UCX  WARN  object 0xb27c780 was not returned to mpool ucp_requests
[1704049789.007787] [gra1290:215866:0]          mpool.c:42   UCX  WARN  object 0xb27c940 was not returned to mpool ucp_requests
[1704049789.007792] [gra1290:215866:0]          mpool.c:42   UCX  WARN  object 0xb27cb00 was not returned to mpool ucp_requests
[1704049789.007796] [gra1290:215866:0]          mpool.c:42   UCX  WARN  object 0xb27ccc0 was not returned to mpool ucp_requests
[1704049789.007801] [gra1290:215866:0]          mpool.c:42   UCX  WARN  object 0xb27ce80 was not returned to mpool ucp_requests
[1704049789.007806] [gra1290:215866:0]          mpool.c:42   UCX  WARN  object 0xb27d040 was not returned to mpool ucp_requests
[1704049789.007811] [gra1290:215866:0]          mpool.c:42   UCX  WARN  object 0xb27d200 was not returned to mpool ucp_requests
[1704049789.007806] [gra1290:215865:0]          mpool.c:42   UCX  WARN  object 0xae02d40 was not returned to mpool ucp_requests
[1704049789.007811] [gra1290:215865:0]          mpool.c:42   UCX  WARN  object 0xae02f00 was not returned to mpool ucp_requests
[1704049789.007816] [gra1290:215865:0]          mpool.c:42   UCX  WARN  object 0xae030c0 was not returned to mpool ucp_requests
[1704049789.007820] [gra1290:215865:0]          mpool.c:42   UCX  WARN  object 0xae03280 was not returned to mpool ucp_requests
[1704049789.007831] [gra1290:215865:0]          mpool.c:42   UCX  WARN  object 0xae03440 was not returned to mpool ucp_requests
[1704049789.007836] [gra1290:215865:0]          mpool.c:42   UCX  WARN  object 0xae03600 was not returned to mpool ucp_requests
[1704049789.007841] [gra1290:215865:0]          mpool.c:42   UCX  WARN  object 0xae037c0 was not returned to mpool ucp_requests
[1704049789.007816] [gra1290:215866:0]          mpool.c:42   UCX  WARN  object 0xb27d3c0 was not returned to mpool ucp_requests
[1704049789.007850] [gra1290:215865:0]          mpool.c:42   UCX  WARN  object 0xae03980 was not returned to mpool ucp_requests
[1704049789.007856] [gra1290:215865:0]          mpool.c:42   UCX  WARN  object 0xae03b40 was not returned to mpool ucp_requests
[1704049789.007861] [gra1290:215865:0]          mpool.c:42   UCX  WARN  object 0xae03d00 was not returned to mpool ucp_requests
[1704049789.007865] [gra1290:215865:0]          mpool.c:42   UCX  WARN  object 0xae03ec0 was not returned to mpool ucp_requests
[1704049789.007870] [gra1290:215865:0]          mpool.c:42   UCX  WARN  object 0xae04080 was not returned to mpool ucp_requests
[1704049789.007954] [gra1290:215866:0]          mpool.c:42   UCX  WARN  object 0xb27d580 was not returned to mpool ucp_requests
[1704049789.007965] [gra1290:215866:0]          mpool.c:42   UCX  WARN  object 0xb27d740 was not returned to mpool ucp_requests
[1704049789.007972] [gra1290:215866:0]          mpool.c:42   UCX  WARN  object 0xb27d900 was not returned to mpool ucp_requests
[1704049789.007977] [gra1290:215866:0]          mpool.c:42   UCX  WARN  object 0xb27dac0 was not returned to mpool ucp_requests
[1704049789.007982] [gra1290:215866:0]          mpool.c:42   UCX  WARN  object 0xb27dc80 was not returned to mpool ucp_requests
[1704049789.007986] [gra1290:215866:0]          mpool.c:42   UCX  WARN  object 0xb27de40 was not returned to mpool ucp_requests
[1704049789.007992] [gra1290:215866:0]          mpool.c:42   UCX  WARN  object 0xb27e000 was not returned to mpool ucp_requests
[1704049789.007997] [gra1290:215866:0]          mpool.c:42   UCX  WARN  object 0xb27e1c0 was not returned to mpool ucp_requests
[1704049789.008109] [gra1290:215862:0]          mpool.c:42   UCX  WARN  object 0xbcc5400 was not returned to mpool ucp_requests
[1704049789.008126] [gra1290:215862:0]          mpool.c:42   UCX  WARN  object 0xbcc55c0 was not returned to mpool ucp_requests
[1704049789.008136] [gra1290:215862:0]          mpool.c:42   UCX  WARN  object 0xbcc5780 was not returned to mpool ucp_requests
[1704049789.008145] [gra1290:215862:0]          mpool.c:42   UCX  WARN  object 0xbcc5940 was not returned to mpool ucp_requests
[1704049789.008153] [gra1290:215862:0]          mpool.c:42   UCX  WARN  object 0xbcc5b00 was not returned to mpool ucp_requests
[1704049789.008158] [gra1290:215862:0]          mpool.c:42   UCX  WARN  object 0xbcc5cc0 was not returned to mpool ucp_requests
[1704049789.008163] [gra1290:215862:0]          mpool.c:42   UCX  WARN  object 0xbcc5e80 was not returned to mpool ucp_requests
[1704049789.008168] [gra1290:215862:0]          mpool.c:42   UCX  WARN  object 0xbcc6040 was not returned to mpool ucp_requests
[1704049789.008176] [gra1290:215862:0]          mpool.c:42   UCX  WARN  object 0xbcc6200 was not returned to mpool ucp_requests
[1704049789.008181] [gra1290:215862:0]          mpool.c:42   UCX  WARN  object 0xbcc63c0 was not returned to mpool ucp_requests
[1704049789.008189] [gra1290:215862:0]          mpool.c:42   UCX  WARN  object 0xbcc6580 was not returned to mpool ucp_requests
[1704049789.008196] [gra1290:215862:0]          mpool.c:42   UCX  WARN  object 0xbcc6740 was not returned to mpool ucp_requests
[1704049789.008201] [gra1290:215862:0]          mpool.c:42   UCX  WARN  object 0xbcc6900 was not returned to mpool ucp_requests
[1704049789.008206] [gra1290:215862:0]          mpool.c:42   UCX  WARN  object 0xbcc6ac0 was not returned to mpool ucp_requests
[1704049789.008211] [gra1290:215862:0]          mpool.c:42   UCX  WARN  object 0xbcc6c80 was not returned to mpool ucp_requests
[1704049789.008216] [gra1290:215862:0]          mpool.c:42   UCX  WARN  object 0xbcc6e40 was not returned to mpool ucp_requests
[1704049789.008223] [gra1290:215862:0]          mpool.c:42   UCX  WARN  object 0xbcc7000 was not returned to mpool ucp_requests
[1704049789.008228] [gra1290:215862:0]          mpool.c:42   UCX  WARN  object 0xbcc71c0 was not returned to mpool ucp_requests
[1704049789.008804] [gra1290:215864:0]          mpool.c:42   UCX  WARN  object 0xb271400 was not returned to mpool ucp_requests
[1704049789.008824] [gra1290:215864:0]          mpool.c:42   UCX  WARN  object 0xb2715c0 was not returned to mpool ucp_requests
[1704049789.008834] [gra1290:215864:0]          mpool.c:42   UCX  WARN  object 0xb271780 was not returned to mpool ucp_requests
[1704049789.008840] [gra1290:215864:0]          mpool.c:42   UCX  WARN  object 0xb271940 was not returned to mpool ucp_requests
[1704049789.008845] [gra1290:215864:0]          mpool.c:42   UCX  WARN  object 0xb271b00 was not returned to mpool ucp_requests
[1704049789.008851] [gra1290:215864:0]          mpool.c:42   UCX  WARN  object 0xb271cc0 was not returned to mpool ucp_requests
[1704049789.008861] [gra1290:215864:0]          mpool.c:42   UCX  WARN  object 0xb271e80 was not returned to mpool ucp_requests
[1704049789.008866] [gra1290:215864:0]          mpool.c:42   UCX  WARN  object 0xb272040 was not returned to mpool ucp_requests
[1704049789.008871] [gra1290:215864:0]          mpool.c:42   UCX  WARN  object 0xb272200 was not returned to mpool ucp_requests
[1704049789.008875] [gra1290:215864:0]          mpool.c:42   UCX  WARN  object 0xb2723c0 was not returned to mpool ucp_requests
[1704049789.008880] [gra1290:215864:0]          mpool.c:42   UCX  WARN  object 0xb272580 was not returned to mpool ucp_requests
[1704049789.008884] [gra1290:215864:0]          mpool.c:42   UCX  WARN  object 0xb272740 was not returned to mpool ucp_requests
[1704049789.008889] [gra1290:215864:0]          mpool.c:42   UCX  WARN  object 0xb272900 was not returned to mpool ucp_requests
[1704049789.008894] [gra1290:215864:0]          mpool.c:42   UCX  WARN  object 0xb272ac0 was not returned to mpool ucp_requests
[1704049789.008899] [gra1290:215864:0]          mpool.c:42   UCX  WARN  object 0xb272c80 was not returned to mpool ucp_requests
[1704049789.008904] [gra1290:215864:0]          mpool.c:42   UCX  WARN  object 0xb272e40 was not returned to mpool ucp_requests
[1704049789.008908] [gra1290:215864:0]          mpool.c:42   UCX  WARN  object 0xb273000 was not returned to mpool ucp_requests
[1704049789.008913] [gra1290:215864:0]          mpool.c:42   UCX  WARN  object 0xb2731c0 was not returned to mpool ucp_requests
[1704049789.009051] [gra1290:215863:0]          mpool.c:42   UCX  WARN  object 0xc59a140 was not returned to mpool ucp_requests
[1704049789.009670] [gra1290:215863:0]          mpool.c:42   UCX  WARN  object 0xc59a300 was not returned to mpool ucp_requests
[1704049789.009684] [gra1290:215863:0]          mpool.c:42   UCX  WARN  object 0xc59a4c0 was not returned to mpool ucp_requests
[1704049789.009690] [gra1290:215863:0]          mpool.c:42   UCX  WARN  object 0xc59a680 was not returned to mpool ucp_requests
[1704049789.009696] [gra1290:215863:0]          mpool.c:42   UCX  WARN  object 0xc59a840 was not returned to mpool ucp_requests
[1704049789.009701] [gra1290:215863:0]          mpool.c:42   UCX  WARN  object 0xc59aa00 was not returned to mpool ucp_requests
[1704049789.009706] [gra1290:215863:0]          mpool.c:42   UCX  WARN  object 0xc59abc0 was not returned to mpool ucp_requests
[1704049789.009712] [gra1290:215863:0]          mpool.c:42   UCX  WARN  object 0xc59ad80 was not returned to mpool ucp_requests
[1704049789.009717] [gra1290:215863:0]          mpool.c:42   UCX  WARN  object 0xc59af40 was not returned to mpool ucp_requests
[1704049789.009722] [gra1290:215863:0]          mpool.c:42   UCX  WARN  object 0xc59b100 was not returned to mpool ucp_requests
[1704049789.009727] [gra1290:215863:0]          mpool.c:42   UCX  WARN  object 0xc59b2c0 was not returned to mpool ucp_requests
[1704049789.009735] [gra1290:215863:0]          mpool.c:42   UCX  WARN  object 0xc59b480 was not returned to mpool ucp_requests
[1704049789.009740] [gra1290:215863:0]          mpool.c:42   UCX  WARN  object 0xc59b640 was not returned to mpool ucp_requests
[1704049789.009748] [gra1290:215863:0]          mpool.c:42   UCX  WARN  object 0xc59b800 was not returned to mpool ucp_requests
[1704049789.009756] [gra1290:215863:0]          mpool.c:42   UCX  WARN  object 0xc59b9c0 was not returned to mpool ucp_requests
[1704049789.009761] [gra1290:215863:0]          mpool.c:42   UCX  WARN  object 0xc59bb80 was not returned to mpool ucp_requests
[1704049789.009766] [gra1290:215863:0]          mpool.c:42   UCX  WARN  object 0xc59bd40 was not returned to mpool ucp_requests
[1704049789.009771] [gra1290:215863:0]          mpool.c:42   UCX  WARN  object 0xc59bf00 was not returned to mpool ucp_requests
[1704049789.010824] [gra1290:215860:0]          mpool.c:42   UCX  WARN  object 0xba9de80 was not returned to mpool ucp_requests
[1704049789.010841] [gra1290:215860:0]          mpool.c:42   UCX  WARN  object 0xba9e040 was not returned to mpool ucp_requests
[1704049789.010848] [gra1290:215860:0]          mpool.c:42   UCX  WARN  object 0xba9e200 was not returned to mpool ucp_requests
[1704049789.010853] [gra1290:215860:0]          mpool.c:42   UCX  WARN  object 0xba9e3c0 was not returned to mpool ucp_requests
[1704049789.010862] [gra1290:215860:0]          mpool.c:42   UCX  WARN  object 0xba9e580 was not returned to mpool ucp_requests
[1704049789.010867] [gra1290:215860:0]          mpool.c:42   UCX  WARN  object 0xba9e740 was not returned to mpool ucp_requests
[1704049789.010871] [gra1290:215860:0]          mpool.c:42   UCX  WARN  object 0xba9e900 was not returned to mpool ucp_requests
[1704049789.010876] [gra1290:215860:0]          mpool.c:42   UCX  WARN  object 0xba9eac0 was not returned to mpool ucp_requests
[1704049789.010881] [gra1290:215860:0]          mpool.c:42   UCX  WARN  object 0xba9ec80 was not returned to mpool ucp_requests
[1704049789.010886] [gra1290:215860:0]          mpool.c:42   UCX  WARN  object 0xba9ee40 was not returned to mpool ucp_requests
[1704049789.010891] [gra1290:215860:0]          mpool.c:42   UCX  WARN  object 0xba9f000 was not returned to mpool ucp_requests
[1704049789.010895] [gra1290:215860:0]          mpool.c:42   UCX  WARN  object 0xba9f1c0 was not returned to mpool ucp_requests
[1704049789.011040] [gra1290:215861:0]          mpool.c:42   UCX  WARN  object 0xbc0e240 was not returned to mpool ucp_requests
[1704049789.011057] [gra1290:215861:0]          mpool.c:42   UCX  WARN  object 0xbc0e400 was not returned to mpool ucp_requests
[1704049789.011067] [gra1290:215861:0]          mpool.c:42   UCX  WARN  object 0xbc0e5c0 was not returned to mpool ucp_requests
[1704049789.011077] [gra1290:215861:0]          mpool.c:42   UCX  WARN  object 0xbc0e780 was not returned to mpool ucp_requests
[1704049789.011085] [gra1290:215861:0]          mpool.c:42   UCX  WARN  object 0xbc0e940 was not returned to mpool ucp_requests
[1704049789.011090] [gra1290:215861:0]          mpool.c:42   UCX  WARN  object 0xbc0eb00 was not returned to mpool ucp_requests
[1704049789.011095] [gra1290:215861:0]          mpool.c:42   UCX  WARN  object 0xbc0ecc0 was not returned to mpool ucp_requests
[1704049789.011099] [gra1290:215861:0]          mpool.c:42   UCX  WARN  object 0xbc0ee80 was not returned to mpool ucp_requests
[1704049789.011104] [gra1290:215861:0]          mpool.c:42   UCX  WARN  object 0xbc0f040 was not returned to mpool ucp_requests
[1704049789.011112] [gra1290:215861:0]          mpool.c:42   UCX  WARN  object 0xbc0f200 was not returned to mpool ucp_requests
[1704049789.011118] [gra1290:215861:0]          mpool.c:42   UCX  WARN  object 0xbc0f3c0 was not returned to mpool ucp_requests
[1704049789.011123] [gra1290:215861:0]          mpool.c:42   UCX  WARN  object 0xbc0f580 was not returned to mpool ucp_requests
[1704049789.011128] [gra1290:215861:0]          mpool.c:42   UCX  WARN  object 0xbc0f740 was not returned to mpool ucp_requests
[1704049789.011133] [gra1290:215861:0]          mpool.c:42   UCX  WARN  object 0xbc0f900 was not returned to mpool ucp_requests
[1704049789.011138] [gra1290:215861:0]          mpool.c:42   UCX  WARN  object 0xbc0fac0 was not returned to mpool ucp_requests
[1704049789.011146] [gra1290:215861:0]          mpool.c:42   UCX  WARN  object 0xbc0fc80 was not returned to mpool ucp_requests
[1704049789.011154] [gra1290:215861:0]          mpool.c:42   UCX  WARN  object 0xbc0fe40 was not returned to mpool ucp_requests
[1704049789.011159] [gra1290:215861:0]          mpool.c:42   UCX  WARN  object 0xbc10000 was not returned to mpool ucp_requests


           ************************************************************
           *        Program running with 8 parallel MPI-processes     *
           *              working on a common directory               *
           ************************************************************
-------------------------------------------------------------------------------
                                 ORCA SCF
-------------------------------------------------------------------------------

------------
SCF SETTINGS
------------
Hamiltonian:
 Ab initio Hamiltonian  Method          .... Hartree-Fock(GTOs)


General Settings:
 Integral files         IntName         .... Fentanyl_OProt_12
 Hartree-Fock type      HFTyp           .... RHF
 Total Charge           Charge          ....    1
 Multiplicity           Mult            ....    1
 Number of Electrons    NEL             ....  182
 Basis Dimension        Dim             ....  949
 Nuclear Repulsion      ENuc            ....   2208.9149111981 Eh

Convergence Acceleration:
 DIIS                   CNVDIIS         .... on
   Start iteration      DIISMaxIt       ....    12
   Startup error        DIISStart       ....  0.200000
   # of expansion vecs  DIISMaxEq       ....     5
   Bias factor          DIISBfac        ....   1.050
   Max. coefficient     DIISMaxC        ....  10.000
 Trust-Rad. Augm. Hess. CNVTRAH         .... auto
   Auto Start mean grad. ratio tolernc. ....  1.125000
   Auto Start start iteration           ....    20
   Auto Start num. interpolation iter.  ....    10
   Max. Number of Micro iterations      ....    16
   Max. Number of Macro iterations      .... Maxiter - #DIIS iter
   Number of Davidson start vectors     ....     2
   Converg. threshold I  (grad. norm)   ....   2.000e-06
   Converg. threshold II (energy diff.) ....   1.000e-09
   Grad. Scal. Fac. for Micro threshold ....   0.100
   Minimum threshold for Micro iter.    ....   0.010
   NR start threshold (gradient norm)   ....   0.001
   Initial trust radius                 ....   0.400
   Minimum AH scaling param. (alpha)    ....   1.000
   Maximum AH scaling param. (alpha)    .... 1000.000
   Orbital update algorithm             .... Taylor
   White noise on init. David. guess    .... on
   Maximum white noise                  ....   0.010
   Quad. conv. algorithm                .... NR
 SOSCF                  CNVSOSCF        .... on
   Start iteration      SOSCFMaxIt      ....   150
   Startup grad/error   SOSCFStart      ....  0.003300
 Level Shifting         CNVShift        .... on
   Level shift para.    LevelShift      ....    0.2500
   Turn off err/grad.   ShiftErr        ....    0.0010
 Zerner damping         CNVZerner       .... off
 Static damping         CNVDamp         .... on
   Fraction old density DampFac         ....    0.7000
   Max. Damping (<1)    DampMax         ....    0.9800
   Min. Damping (>=0)   DampMin         ....    0.0000
   Turn off err/grad.   DampErr         ....    0.1000
 Fernandez-Rico         CNVRico         .... off

SCF Procedure:
 Maximum # iterations   MaxIter         ....   125
 SCF integral mode      SCFMode         .... Direct
   Integral package                     .... SHARK and LIBINT hybrid scheme
 Reset frequency        DirectResetFreq ....    20
 Integral Threshold     Thresh          ....  1.000e-12 Eh
 Primitive CutOff       TCut            ....  1.000e-14 Eh

Convergence Tolerance:
 Convergence Check Mode ConvCheckMode   .... Total+1el-Energy
 Convergence forced     ConvForced      .... 1
 Energy Change          TolE            ....  1.000e-09 Eh
 1-El. energy change                    ....  1.000e-06 Eh
 Orbital Gradient       TolG            ....  2.000e-06
 Orbital Rotation angle TolX            ....  2.000e-06
 DIIS Error             TolErr          ....  1.000e-08


Diagonalization of the overlap matrix:
Smallest eigenvalue                        ... 6.657e-06
Time for diagonalization                   ...    0.214 sec
Threshold for overlap eigenvalues          ... 1.000e-08
Number of eigenvalues below threshold      ... 0
Time for construction of square roots      ...    0.111 sec
Total time needed                          ...    0.331 sec

Time for model grid setup =    0.439 sec

------------------------------
INITIAL GUESS: MODEL POTENTIAL
------------------------------
Loading Hartree-Fock densities                     ... done
Calculating cut-offs                               ... done
Initializing the effective Hamiltonian             ... done
Setting up the integral package (SHARK)            ... done
Starting the Coulomb interaction                   ... done (   1.1 sec)
Reading the grid                                   ... done
Mapping shells                                     ... done
Starting the XC term evaluation                    ... done (   0.3 sec)
Transforming the Hamiltonian                       ... done (   0.1 sec)
Diagonalizing the Hamiltonian                      ... done (   0.2 sec)
Back transforming the eigenvectors                 ... done (   0.0 sec)
Now organizing SCF variables                       ... done
                      ------------------
                      INITIAL GUESS DONE (   2.3 sec)
                      ------------------
--------------
SCF ITERATIONS
--------------
ITER       Energy         Delta-E        Max-DP      RMS-DP      [F,P]     Damp
               ***  Starting incremental Fock matrix formation  ***
  0  -1032.8664833339   0.000000000000 0.03358605  0.00055116  0.2947940 0.7000
  1  -1033.2223129999  -0.355829665938 0.02561580  0.00045185  0.2189563 0.7000
                               ***Turning on DIIS***
  2  -1033.4428795406  -0.220566540778 0.02045808  0.00031046  0.1615142 0.7000
  3  -1036.2668627619  -2.823983221308 0.01642308  0.00021798  0.1180665 0.7000
  4  -1035.8990811019   0.367781660073 0.03846366  0.00055436  0.0834884 0.0000
  5  -1034.0052724691   1.893808632758 0.00424082  0.00006863  0.0044628 0.0000
                      *** Initiating the SOSCF procedure ***
                           *** Shutting down DIIS ***
                      *** Re-Reading the Fockian *** 
                      *** Removing any level shift *** 
ITER      Energy       Delta-E        Grad      Rot      Max-DP    RMS-DP
  6  -1033.92528438   0.0799880870  0.002031  0.002031  0.002566  0.000038
               *** Restarting incremental Fock matrix formation ***
  7  -1033.91275423   0.0125301537  0.000604  0.001291  0.001226  0.000019
  8  -1033.91278476  -0.0000305337  0.000383  0.001028  0.001135  0.000016
  9  -1033.91279326  -0.0000084998  0.000136  0.000223  0.000321  0.000004
 10  -1033.91279430  -0.0000010357  0.000100  0.000303  0.000185  0.000003
 11  -1033.91279459  -0.0000002885  0.000035  0.000168  0.000059  0.000001
 12  -1033.91279466  -0.0000000717  0.000017  0.000045  0.000039  0.000000
 13  -1033.91279467  -0.0000000086  0.000004  0.000012  0.000012  0.000000
 14  -1033.91279467  -0.0000000011  0.000002  0.000003  0.000003  0.000000
                  ***Gradient check signals convergence***
              ***Rediagonalizing the Fockian in SOSCF/NRSCF***

               *****************************************************
               *                     SUCCESS                       *
               *           SCF CONVERGED AFTER  15 CYCLES          *
               *****************************************************


----------------
TOTAL SCF ENERGY
----------------

Total Energy       :        -1033.91279467 Eh          -28134.19746 eV

Components:
Nuclear Repulsion  :         2208.91491120 Eh           60107.63055 eV
Electronic Energy  :        -3242.82770587 Eh          -88241.82800 eV
One Electron Energy:        -5774.21219153 Eh         -157124.30178 eV
Two Electron Energy:         2531.38448566 Eh           68882.47377 eV

Virial components:
Potential Energy   :        -2066.93159744 Eh          -56244.06816 eV
Kinetic Energy     :         1033.01880277 Eh           28109.87070 eV
Virial Ratio       :            2.00086542


---------------
SCF CONVERGENCE
---------------

  Last Energy change         ...    2.9058e-10  Tolerance :   1.0000e-09
  Last MAX-Density change    ...    1.9687e-06  Tolerance :   1.0000e-08
  Last RMS-Density change    ...    2.5695e-08  Tolerance :   1.0000e-09
  Last Orbital Gradient      ...    3.8758e-07  Tolerance :   2.0000e-06
  Last Orbital Rotation      ...    8.0231e-07  Tolerance :   2.0000e-06

             **** THE GBW FILE WAS UPDATED (Fentanyl_OProt_12.gbw) ****
             **** DENSITY Fentanyl_OProt_12.scfp WAS UPDATED ****
             **** ENERGY FILE WAS UPDATED (Fentanyl_OProt_12.en.tmp) ****
             **** THE GBW FILE WAS UPDATED (Fentanyl_OProt_12.gbw) ****
             **** DENSITY Fentanyl_OProt_12.scfp WAS UPDATED ****
----------------
ORBITAL ENERGIES
----------------

  NO   OCC          E(Eh)            E(eV) 
   0   2.0000     -20.789951      -565.7233 
   1   2.0000     -15.782310      -429.4585 
   2   2.0000     -15.631210      -425.3469 
   3   2.0000     -11.555527      -314.4419 
   4   2.0000     -11.411115      -310.5122 
   5   2.0000     -11.405513      -310.3598 
   6   2.0000     -11.400981      -310.2365 
   7   2.0000     -11.375187      -309.5346 
   8   2.0000     -11.367495      -309.3253 
   9   2.0000     -11.367317      -309.3204 
  10   2.0000     -11.358372      -309.0770 
  11   2.0000     -11.358004      -309.0670 
  12   2.0000     -11.355891      -309.0095 
  13   2.0000     -11.345913      -308.7380 
  14   2.0000     -11.338811      -308.5447 
  15   2.0000     -11.335296      -308.4491 
  16   2.0000     -11.331802      -308.3540 
  17   2.0000     -11.330186      -308.3100 
  18   2.0000     -11.308731      -307.7262 
  19   2.0000     -11.303665      -307.5883 
  20   2.0000     -11.302583      -307.5589 
  21   2.0000     -11.299787      -307.4828 
  22   2.0000     -11.299693      -307.4803 
  23   2.0000     -11.298980      -307.4609 
  24   2.0000     -11.298169      -307.4388 
  25   2.0000      -1.635605       -44.5071 
  26   2.0000      -1.456870       -39.6434 
  27   2.0000      -1.331014       -36.2187 
  28   2.0000      -1.283656       -34.9300 
  29   2.0000      -1.235265       -33.6133 
  30   2.0000      -1.227793       -33.4100 
  31   2.0000      -1.193644       -32.4807 
  32   2.0000      -1.155970       -31.4556 
  33   2.0000      -1.150360       -31.3029 
  34   2.0000      -1.130267       -30.7561 
  35   2.0000      -1.127238       -30.6737 
  36   2.0000      -1.085293       -29.5323 
  37   2.0000      -1.077592       -29.3228 
  38   2.0000      -1.049056       -28.5463 
  39   2.0000      -1.020407       -27.7667 
  40   2.0000      -0.990142       -26.9431 
  41   2.0000      -0.974799       -26.5256 
  42   2.0000      -0.955788       -26.0083 
  43   2.0000      -0.943074       -25.6624 
  44   2.0000      -0.932106       -25.3639 
  45   2.0000      -0.897994       -24.4357 
  46   2.0000      -0.892912       -24.2974 
  47   2.0000      -0.873050       -23.7569 
  48   2.0000      -0.871128       -23.7046 
  49   2.0000      -0.851780       -23.1781 
  50   2.0000      -0.829816       -22.5804 
  51   2.0000      -0.824427       -22.4338 
  52   2.0000      -0.792204       -21.5570 
  53   2.0000      -0.770468       -20.9655 
  54   2.0000      -0.768713       -20.9178 
  55   2.0000      -0.753209       -20.4959 
  56   2.0000      -0.752782       -20.4842 
  57   2.0000      -0.735667       -20.0185 
  58   2.0000      -0.734950       -19.9990 
  59   2.0000      -0.732201       -19.9242 
  60   2.0000      -0.719765       -19.5858 
  61   2.0000      -0.716614       -19.5001 
  62   2.0000      -0.714102       -19.4317 
  63   2.0000      -0.705907       -19.2087 
  64   2.0000      -0.697757       -18.9869 
  65   2.0000      -0.696533       -18.9536 
  66   2.0000      -0.680523       -18.5180 
  67   2.0000      -0.672160       -18.2904 
  68   2.0000      -0.669488       -18.2177 
  69   2.0000      -0.660093       -17.9620 
  70   2.0000      -0.653842       -17.7919 
  71   2.0000      -0.643832       -17.5196 
  72   2.0000      -0.640766       -17.4361 
  73   2.0000      -0.636286       -17.3142 
  74   2.0000      -0.633850       -17.2479 
  75   2.0000      -0.630346       -17.1526 
  76   2.0000      -0.618200       -16.8221 
  77   2.0000      -0.608329       -16.5535 
  78   2.0000      -0.598377       -16.2827 
  79   2.0000      -0.592011       -16.1094 
  80   2.0000      -0.575361       -15.6564 
  81   2.0000      -0.571659       -15.5556 
  82   2.0000      -0.566603       -15.4181 
  83   2.0000      -0.552163       -15.0251 
  84   2.0000      -0.548323       -14.9206 
  85   2.0000      -0.545594       -14.8464 
  86   2.0000      -0.470800       -12.8111 
  87   2.0000      -0.467008       -12.7079 
  88   2.0000      -0.442884       -12.0515 
  89   2.0000      -0.408885       -11.1263 
  90   2.0000      -0.393828       -10.7166 
  91   0.0000      -0.021591        -0.5875 
  92   0.0000      -0.018086        -0.4921 
  93   0.0000      -0.003913        -0.1065 
  94   0.0000       0.001385         0.0377 
  95   0.0000       0.023616         0.6426 
  96   0.0000       0.041083         1.1179 
  97   0.0000       0.042996         1.1700 
  98   0.0000       0.048736         1.3262 
  99   0.0000       0.052963         1.4412 
 100   0.0000       0.060127         1.6362 
 101   0.0000       0.065794         1.7903 
 102   0.0000       0.071052         1.9334 
 103   0.0000       0.076195         2.0734 
 104   0.0000       0.079969         2.1761 
 105   0.0000       0.088225         2.4007 
 106   0.0000       0.089619         2.4387 
 107   0.0000       0.094044         2.5591 
 108   0.0000       0.096577         2.6280 
 109   0.0000       0.098100         2.6694 
 110   0.0000       0.107332         2.9206 
 111   0.0000       0.110396         3.0040 
 112   0.0000       0.112810         3.0697 
 113   0.0000       0.117658         3.2017 
 114   0.0000       0.118421         3.2224 
 115   0.0000       0.120641         3.2828 
 116   0.0000       0.131694         3.5836 
 117   0.0000       0.136589         3.7168 
 118   0.0000       0.137838         3.7508 
 119   0.0000       0.147610         4.0167 
 120   0.0000       0.149710         4.0738 
 121   0.0000       0.153536         4.1779 
 122   0.0000       0.156322         4.2537 
 123   0.0000       0.163181         4.4404 
 124   0.0000       0.170297         4.6340 
 125   0.0000       0.176659         4.8071 
 126   0.0000       0.183569         4.9952 
 127   0.0000       0.185465         5.0468 
 128   0.0000       0.191561         5.2126 
 129   0.0000       0.198167         5.3924 
 130   0.0000       0.203722         5.5436 
 131   0.0000       0.205223         5.5844 
 132   0.0000       0.208814         5.6821 
 133   0.0000       0.211390         5.7522 
 134   0.0000       0.214975         5.8498 
 135   0.0000       0.217242         5.9115 
 136   0.0000       0.225921         6.1476 
 137   0.0000       0.230952         6.2845 
 138   0.0000       0.236254         6.4288 
 139   0.0000       0.239343         6.5128 
 140   0.0000       0.243446         6.6245 
 141   0.0000       0.246895         6.7183 
 142   0.0000       0.249002         6.7757 
 143   0.0000       0.256997         6.9933 
 144   0.0000       0.262359         7.1392 
 145   0.0000       0.268237         7.2991 
 146   0.0000       0.272656         7.4193 
 147   0.0000       0.273738         7.4488 
 148   0.0000       0.274742         7.4761 
 149   0.0000       0.277677         7.5560 
 150   0.0000       0.282561         7.6889 
 151   0.0000       0.285400         7.7661 
 152   0.0000       0.292668         7.9639 
 153   0.0000       0.294100         8.0029 
 154   0.0000       0.301455         8.2030 
 155   0.0000       0.303905         8.2697 
 156   0.0000       0.308526         8.3954 
 157   0.0000       0.311791         8.4843 
 158   0.0000       0.317742         8.6462 
 159   0.0000       0.319248         8.6872 
 160   0.0000       0.323666         8.8074 
 161   0.0000       0.333569         9.0769 
 162   0.0000       0.335968         9.1422 
 163   0.0000       0.343225         9.3396 
 164   0.0000       0.343900         9.3580 
 165   0.0000       0.356394         9.6980 
 166   0.0000       0.360114         9.7992 
 167   0.0000       0.363619         9.8946 
 168   0.0000       0.370572        10.0838 
 169   0.0000       0.370702        10.0873 
 170   0.0000       0.384011        10.4495 
 171   0.0000       0.388037        10.5590 
 172   0.0000       0.390711        10.6318 
 173   0.0000       0.392922        10.6920 
 174   0.0000       0.401598        10.9280 
 175   0.0000       0.404449        11.0056 
 176   0.0000       0.408491        11.1156 
 177   0.0000       0.411915        11.2088 
 178   0.0000       0.416151        11.3240 
 179   0.0000       0.423027        11.5112 
 180   0.0000       0.426413        11.6033 
 181   0.0000       0.427196        11.6246 
 182   0.0000       0.431073        11.7301 
 183   0.0000       0.434518        11.8238 
 184   0.0000       0.437983        11.9181 
 185   0.0000       0.439613        11.9625 
 186   0.0000       0.443258        12.0617 
 187   0.0000       0.445705        12.1283 
 188   0.0000       0.449238        12.2244 
 189   0.0000       0.450787        12.2665 
 190   0.0000       0.455433        12.3930 
 191   0.0000       0.459942        12.5157 
 192   0.0000       0.460834        12.5399 
 193   0.0000       0.466431        12.6922 
 194   0.0000       0.470917        12.8143 
 195   0.0000       0.476021        12.9532 
 196   0.0000       0.482551        13.1309 
 197   0.0000       0.486553        13.2398 
 198   0.0000       0.488506        13.2929 
 199   0.0000       0.492837        13.4108 
 200   0.0000       0.494978        13.4690 
 201   0.0000       0.497005        13.5242 
 202   0.0000       0.499151        13.5826 
 203   0.0000       0.502127        13.6636 
 204   0.0000       0.507818        13.8184 
 205   0.0000       0.510727        13.8976 
 206   0.0000       0.511962        13.9312 
 207   0.0000       0.512983        13.9590 
 208   0.0000       0.516274        14.0485 
 209   0.0000       0.518200        14.1009 
 210   0.0000       0.521797        14.1988 
 211   0.0000       0.523818        14.2538 
 212   0.0000       0.528473        14.3805 
 213   0.0000       0.531375        14.4594 
 214   0.0000       0.535216        14.5640 
 215   0.0000       0.540057        14.6957 
 216   0.0000       0.543753        14.7963 
 217   0.0000       0.546943        14.8831 
 218   0.0000       0.548079        14.9140 
 219   0.0000       0.548285        14.9196 
 220   0.0000       0.552699        15.0397 
 221   0.0000       0.554884        15.0991 
 222   0.0000       0.560893        15.2627 
 223   0.0000       0.565097        15.3771 
 224   0.0000       0.573613        15.6088 
 225   0.0000       0.575999        15.6737 
 226   0.0000       0.578262        15.7353 
 227   0.0000       0.583066        15.8660 
 228   0.0000       0.587693        15.9920 
 229   0.0000       0.591485        16.0951 
 230   0.0000       0.594508        16.1774 
 231   0.0000       0.597056        16.2467 
 232   0.0000       0.603020        16.4090 
 233   0.0000       0.609422        16.5832 
 234   0.0000       0.611971        16.6526 
 235   0.0000       0.619560        16.8591 
 236   0.0000       0.626857        17.0577 
 237   0.0000       0.630191        17.1484 
 238   0.0000       0.633382        17.2352 
 239   0.0000       0.639423        17.3996 
 240   0.0000       0.643112        17.5000 
 241   0.0000       0.653008        17.7692 
 242   0.0000       0.656625        17.8677 
 243   0.0000       0.660091        17.9620 
 244   0.0000       0.668149        18.1813 
 245   0.0000       0.676035        18.3959 
 246   0.0000       0.678480        18.4624 
 247   0.0000       0.691329        18.8120 
 248   0.0000       0.700605        19.0644 
 249   0.0000       0.705368        19.1940 
 250   0.0000       0.709734        19.3128 
 251   0.0000       0.711127        19.3508 
 252   0.0000       0.718046        19.5390 
 253   0.0000       0.723996        19.7009 
 254   0.0000       0.732026        19.9194 
 255   0.0000       0.736950        20.0534 
 256   0.0000       0.742118        20.1941 
 257   0.0000       0.756568        20.5873 
 258   0.0000       0.759844        20.6764 
 259   0.0000       0.769213        20.9313 
 260   0.0000       0.780495        21.2383 
 261   0.0000       0.781374        21.2623 
 262   0.0000       0.789065        21.4715 
 263   0.0000       0.793675        21.5970 
 264   0.0000       0.796830        21.6828 
 265   0.0000       0.808037        21.9878 
 266   0.0000       0.811765        22.0892 
 267   0.0000       0.814040        22.1512 
 268   0.0000       0.816512        22.2184 
 269   0.0000       0.827353        22.5134 
 270   0.0000       0.833904        22.6917 
 271   0.0000       0.840544        22.8724 
 272   0.0000       0.841506        22.8985 
 273   0.0000       0.846051        23.0222 
 274   0.0000       0.847926        23.0732 
 275   0.0000       0.852895        23.2084 
 276   0.0000       0.854910        23.2633 
 277   0.0000       0.860553        23.4168 
 278   0.0000       0.864107        23.5136 
 279   0.0000       0.871103        23.7039 
 280   0.0000       0.881708        23.9925 
 281   0.0000       0.888839        24.1866 
 282   0.0000       0.898646        24.4534 
 283   0.0000       0.905786        24.6477 
 284   0.0000       0.909083        24.7374 
 285   0.0000       0.915496        24.9119 
 286   0.0000       0.917789        24.9743 
 287   0.0000       0.920860        25.0579 
 288   0.0000       0.927402        25.2359 
 289   0.0000       0.932638        25.3784 
 290   0.0000       0.936126        25.4733 
 291   0.0000       0.946691        25.7608 
 292   0.0000       0.949007        25.8238 
 293   0.0000       0.952730        25.9251 
 294   0.0000       0.963417        26.2159 
 295   0.0000       0.972435        26.4613 
 296   0.0000       0.977537        26.6001 
 297   0.0000       0.981940        26.7200 
 298   0.0000       0.988326        26.8937 
 299   0.0000       0.995761        27.0960 
 300   0.0000       1.001082        27.2408 
 301   0.0000       1.007393        27.4126 
 302   0.0000       1.012985        27.5647 
 303   0.0000       1.020532        27.7701 
 304   0.0000       1.024611        27.8811 
 305   0.0000       1.029675        28.0189 
 306   0.0000       1.038031        28.2463 
 307   0.0000       1.047537        28.5049 
 308   0.0000       1.054779        28.7020 
 309   0.0000       1.066841        29.0302 
 310   0.0000       1.070308        29.1246 
 311   0.0000       1.072956        29.1966 
 312   0.0000       1.081605        29.4320 
 313   0.0000       1.086959        29.5777 
 314   0.0000       1.098199        29.8835 
 315   0.0000       1.102311        29.9954 
 316   0.0000       1.110800        30.2264 
 317   0.0000       1.113778        30.3074 
 318   0.0000       1.133086        30.8328 
 319   0.0000       1.142466        31.0881 
 320   0.0000       1.152500        31.3611 
 321   0.0000       1.155283        31.4368 
 322   0.0000       1.158408        31.5219 
 323   0.0000       1.163406        31.6579 
 324   0.0000       1.171417        31.8759 
 325   0.0000       1.175311        31.9818 
 326   0.0000       1.180542        32.1242 
 327   0.0000       1.185309        32.2539 
 328   0.0000       1.194562        32.5057 
 329   0.0000       1.196746        32.5651 
 330   0.0000       1.209598        32.9148 
 331   0.0000       1.209753        32.9190 
 332   0.0000       1.227654        33.4062 
 333   0.0000       1.236276        33.6408 
 334   0.0000       1.240030        33.7429 
 335   0.0000       1.247599        33.9489 
 336   0.0000       1.254785        34.1444 
 337   0.0000       1.261250        34.3203 
 338   0.0000       1.266493        34.4630 
 339   0.0000       1.278213        34.7819 
 340   0.0000       1.285999        34.9938 
 341   0.0000       1.287375        35.0312 
 342   0.0000       1.296279        35.2736 
 343   0.0000       1.304087        35.4860 
 344   0.0000       1.312774        35.7224 
 345   0.0000       1.314755        35.7763 
 346   0.0000       1.323142        36.0045 
 347   0.0000       1.334280        36.3076 
 348   0.0000       1.343412        36.5561 
 349   0.0000       1.345339        36.6085 
 350   0.0000       1.349058        36.7097 
 351   0.0000       1.356317        36.9073 
 352   0.0000       1.364769        37.1373 
 353   0.0000       1.369839        37.2752 
 354   0.0000       1.376804        37.4647 
 355   0.0000       1.379790        37.5460 
 356   0.0000       1.381480        37.5920 
 357   0.0000       1.385799        37.7095 
 358   0.0000       1.390777        37.8450 
 359   0.0000       1.406646        38.2768 
 360   0.0000       1.412688        38.4412 
 361   0.0000       1.420983        38.6669 
 362   0.0000       1.427038        38.8317 
 363   0.0000       1.427628        38.8477 
 364   0.0000       1.432961        38.9929 
 365   0.0000       1.437776        39.1239 
 366   0.0000       1.442788        39.2603 
 367   0.0000       1.450525        39.4708 
 368   0.0000       1.456665        39.6379 
 369   0.0000       1.461600        39.7722 
 370   0.0000       1.472795        40.0768 
 371   0.0000       1.486744        40.4564 
 372   0.0000       1.493554        40.6417 
 373   0.0000       1.498229        40.7689 
 374   0.0000       1.512796        41.1653 
 375   0.0000       1.515368        41.2353 
 376   0.0000       1.519484        41.3473 
 377   0.0000       1.525301        41.5055 
 378   0.0000       1.539678        41.8968 
 379   0.0000       1.548252        42.1301 
 380   0.0000       1.549300        42.1586 
 381   0.0000       1.557166        42.3726 
 382   0.0000       1.571819        42.7714 
 383   0.0000       1.579848        42.9899 
 384   0.0000       1.594392        43.3856 
 385   0.0000       1.605659        43.6922 
 386   0.0000       1.610365        43.8203 
 387   0.0000       1.622930        44.1622 
 388   0.0000       1.625813        44.2406 
 389   0.0000       1.638666        44.5904 
 390   0.0000       1.646996        44.8170 
 391   0.0000       1.649715        44.8910 
 392   0.0000       1.652771        44.9742 
 393   0.0000       1.654119        45.0109 
 394   0.0000       1.661565        45.2135 
 395   0.0000       1.667657        45.3793 
 396   0.0000       1.670860        45.4664 
 397   0.0000       1.674092        45.5544 
 398   0.0000       1.686884        45.9025 
 399   0.0000       1.692593        46.0578 
 400   0.0000       1.697622        46.1946 
 401   0.0000       1.706165        46.4271 
 402   0.0000       1.711842        46.5816 
 403   0.0000       1.715062        46.6692 
 404   0.0000       1.724658        46.9303 
 405   0.0000       1.727210        46.9998 
 406   0.0000       1.737728        47.2860 
 407   0.0000       1.747667        47.5564 
 408   0.0000       1.750769        47.6408 
 409   0.0000       1.754531        47.7432 
 410   0.0000       1.758497        47.8511 
 411   0.0000       1.764957        48.0269 
[...]
sum of PNO error estimates for the kept pairs         ...      -0.012128081382 Eh
                                                          --------------------
sum of all corrections                                         -0.031801267323
Initial total correlation energy                               -3.981937145833
Thresholds for map construction and integral transformation for fine MP2 and CCSD(T) calculation:
   TCutMKN   ...     1.0e-03
   TCutDO    ...     1.0e-02
   TCutPairs ...     1.0e-04
   TCutCMO   ...     1.0e-03
   TCutCPAO  ...     1.0e-03

Thresholds for map construction and integral transformation for strong Triples:
   TCutMKN   ...     1.0e-02
   TCutDO    ...     2.0e-02
   TCutCMO   ...     1.0e-03
   TCutCPAO  ...     1.0e-03

Thresholds for map construction and integral transformation for weak Triples:
   TCutMKN   ...     1.0e-01
   TCutDO    ...     4.0e-02
   TCutCMO   ...     1.0e-03
   TCutCPAO  ...     1.0e-03

--------------------------------
LOCAL RI TRANSFORMATION (IAVPAO)
--------------------------------

Orbital window:      25 to 90
Number of PAOs:     949
Basis functions:    949 (391 shells)
Aux. functions:    2335 (753 shells)
Use SHARK:           on

Processing maps (0.0 sec)
Average map sizes:
   Aux shells -> MOs              50.5
   Aux shells -> PAOs            949.0
   MOs        -> AO shells       314.7
   PAOs       -> AO shells       370.5

Calculating integrals (7.9 sec, 865.126 MB)
Sorting integrals (1.8 sec, 851.681 MB)
Total time for the integral transformation: 9.9 sec
--------------------------------
INITIAL GUESS AND PNO GENERATION
--------------------------------

PNO truncation parameters                   .... 
    PAOOverlapThresh   =        1.000e-08

    TCutPairs          =        1.000e-04
    TCutPNO            =        3.330e-07
    TCutPNOSingles     =        9.990e-09
    TCutMP2Pairs       =        1.000e-05
    TCutMKN            =        1.000e-03
    TCutDO             =        1.000e-02

Pair selection                          .... not used
Type of local MP2 treatment                 .... semi-local MP2
Strategy for PNO selection                  .... occupation number selection
Pair density normalization                  .... MP2 norm
Spin component scaling                      .... not used

   .... Finished loop over pairs

 PNO Occupation Number Statistics: 
  | Av. % of trace(Dij) retained        ...  97.500577563717
  | sigma^2 in % of trace(Dij) retained ...   6.26e+00
  | Av. % of trace(Di) retained         ...  99.999037712577
  | sigma^2 in % of trace(Di) retained  ...   1.05e-07
 Distributions of % trace(Dij) recovered:
  |       >= 99.9  ...   206 ( 16.9 % of all pairs)
  |   [80.0, 90.0) ...    18 (  1.5 % of all pairs)
  |   [90.0, 99.0) ...   727 ( 59.6 % of all pairs)
  |   [99.0, 99.9) ...   268 ( 22.0 % of all pairs)
 Distributions of % trace(Di) recovered :
  |       >= 99.9  ...    66 (100.0 % of all I-pairs )

Making pair pair interaction lists          ... done

                       ===========================
                        745 OF 1219 PAIRS ARE KEPT
                       ===========================

Total time spent in the initial guess                 ...    50.589 sec
SL-MP2 correlation energy (all non-screened pairs)    ...      -3.983893104840 Eh

Initial PNO correlation energy                        ...      -3.954222327845 Eh
sum of pair energies estimated for screened out pairs ...      -0.002296748450 Eh
sum of MP2 pair energies for pairs that were not kept ...      -0.017436402089 Eh
sum of PNO error estimates for the kept pairs         ...      -0.012234374906 Eh
                                                          --------------------
sum of all corrections                                         -0.031967525445
Initial total correlation energy                               -3.986189853290
Thresholds for map construction and integral transformation for fine MP2 and CCSD(T) calculation:
   TCutMKN   ...     1.0e-03
   TCutDO    ...     1.0e-02
   TCutPairs ...     1.0e-04
   TCutCMO   ...     1.0e-03
   TCutCPAO  ...     1.0e-03

Time for aux screen maps:            0.011
Time for maps after fine MP2:            0.085
-----------------------------
LOCAL RI TRANSFORMATION (IJV)
-----------------------------

Orbital window:      25 to 90
Basis functions:    949 (391 shells)
Aux. functions:    2335 (753 shells)
Use SHARK:           on

Processing maps (0.0 sec)
Average map sizes:
   Aux shells -> MOs(i)           41.4
   Aux shells -> MOs(j)           66.0
   MOs        -> AO shells       314.7

Calculating integrals (6.6 sec, 49.591 MB)
Sorting integrals (0.1 sec, 49.097 MB)
Total time for the integral transformation: 6.7 sec
--------------------------------
LOCAL RI TRANSFORMATION (VABPAO)
--------------------------------

Number of PAOs:     949
Basis functions:    949 (391 shells)
Aux. functions:    2335 (753 shells)
Use SHARK:           on

Processing maps (0.0 sec)
Average map sizes:
   Aux shells -> PAOs            825.6
   PAOs       -> AO shells       370.5

Calculating integrals (25.3 sec, 12659.895 MB)
Finished


-------------------------------------
Pair Pair Term precalculation with     
RI-(ij|mn) and (im|jn) transformation  
ON THE FLY                             
-------------------------------------

   IBatch   1 (of   8)              ... done (   48.610 sec)
   IBatch   2 (of   8)              ... done (   46.512 sec)
   IBatch   3 (of   8)              ... done (   57.871 sec)
   IBatch   4 (of   8)              ... done (   53.673 sec)
   IBatch   5 (of   8)              ... done (   65.389 sec)
   IBatch   6 (of   8)              ... done (   73.159 sec)
   IBatch   7 (of   8)              ... done (  100.098 sec)
   IBatch   8 (of   8)              ... done (   64.960 sec)
Total EXT                           ...         510.277 sec

---------------------
RI-PNO TRANSFORMATION
---------------------

Total Number of PNOs                   ... 23463
Average number of PNOs per pair        ...    31
Maximal number of PNOs per pair        ...    80
   #pairs with  1 -  5 PNOs   :    0
   #pairs with  6 - 10 PNOs   :   28
   #pairs with 11 - 15 PNOs   :  116
   #pairs with 16 - 20 PNOs   :  105
   #pairs with 21 - 25 PNOs   :   48
   #pairs with 26 - 30 PNOs   :   79
   #pairs with 31 - 35 PNOs   :  102
   #pairs with 36 - 40 PNOs   :   59
   #pairs with 41 - 45 PNOs   :   55
   #pairs with 46 - 50 PNOs   :   80
   #pairs with 51 - 55 PNOs   :    8
   #pairs with 56 - 60 PNOs   :   23
   #pairs with 61 - 65 PNOs   :   12
   #pairs with 71 - 75 PNOs   :   24
   #pairs with 76 - 80 PNOs   :    6

Generation of (ij|ab)[P] integrals            ... on
Generation of (ia|bc)[P],(ja|bc)[P] integrals ... on
Storage of 3 and 4 external integrals         ... on
Generation of ALL (ka|bc)[P] integrals        ... on
Keep RI integrals in memory                   ... off

Ibatch:  1 (of  1)
Starting 2-4 index PNO integral generation ... done

Timings:
Total PNO integral transformation time     ...        214.526 sec
Size of the 3-external file                ...       342 MB
Size of the 4-external file                ...      2321 MB
Size of the IKJL file                      ...         0 MB
Size of the all 3-external file            ...      7745 MB
Size of the 1-external file                ...        25 MB

Making pair/pair overlap matrices          ... done (   46.986 sec)
Size of the pair overlap file              ... 2375 MB
Redoing the guess amplitudes               ... done (    0.023 sec)

-------------------------
FINAL STARTUP INFORMATION
-------------------------

E(0)                                       ...  -1033.912794668
E(SL-MP2)                                  ...     -3.983893105
E(SL-MP2) including corrections            ...     -3.986189853
Initial E(tot)                             ...  -1037.898984521
<T|T>                                      ...      1.174246872
Number of pairs included                   ... 745
Total number of pairs                      ... 2211

------------------------------------------------
                  RHF COUPLED CLUSTER ITERATIONS
------------------------------------------------

Number of PNO amplitudes to be optimized   ...       933971
Number of non-PNO amplitudes               ...    548442180
Untruncated number of regular amplitudes   ...   1627658604

Iter       E(tot)           E(Corr)          Delta-E          Residual     Time
  0  -1037.899169202     -3.954407008      0.029486096      0.017087626   48.49
                           *** Turning on DIIS ***
  1  -1038.062158811     -4.117396618     -0.162989610      0.009166484   44.99
  2  -1038.167121647     -4.222359453     -0.104962835      0.004598784   43.88
  3  -1038.185048913     -4.240286720     -0.017927267      0.002446167   45.47
  4  -1038.189982674     -4.245220481     -0.004933761      0.001305742   45.31
  5  -1038.191472062     -4.246709868     -0.001489387      0.000685752   46.08
  6  -1038.191923016     -4.247160823     -0.000450955      0.000270542   45.70
  7  -1038.191957185     -4.247194992     -0.000034169      0.000130517   46.01
  8  -1038.191970873     -4.247208680     -0.000013688      0.000068082   46.09
  9  -1038.191955754     -4.247193561      0.000015120      0.000037424   45.94
 10  -1038.191959409     -4.247197216     -0.000003655      0.000015609   46.15
 11  -1038.191958240     -4.247196047      0.000001169      0.000004917   46.01
 12  -1038.191958745     -4.247196552     -0.000000505      0.000001719   46.24
 13  -1038.191958427     -4.247196233      0.000000318      0.000000563   46.06
               --- The Coupled-Cluster iterations have converged ---

----------------------
COUPLED CLUSTER ENERGY
----------------------

E(0)                                       ...  -1033.912794668
E(CORR)(strong-pairs)                      ...     -4.247196233
E(CORR)(weak-pairs)                        ...     -0.031967525
E(CORR)(corrected)                         ...     -4.279163759
E(TOT)                                     ...  -1038.191958427
Singles Norm <S|S>**1/2                    ...      0.118066924  
T1 diagnostic                              ...      0.010276407  

------------------
LARGEST AMPLITUDES
------------------
  37-> 93  37-> 93       0.048540
  40-> 91  40-> 91       0.048495
  39-> 91  39-> 91       0.048316
  35-> 91  35-> 91       0.047226
  42-> 93  42-> 93       0.047177
  33-> 91  33-> 91       0.046286
  83-> 95  83-> 95       0.045916
  86-> 95  86-> 95       0.044932
  31-> 91  31-> 91       0.044887
  88-> 95  88-> 95       0.044088
  89-> 95  89-> 95       0.043861
  87-> 95  87-> 95       0.043659
  28-> 92  28-> 92       0.043607
  82-> 95  82-> 95       0.043270
  44-> 91  44-> 91       0.038415
  90-> 91  90-> 91       0.038371


-------------------------------------------
DLPNO BASED TRIPLES CORRECTION
-------------------------------------------

Singles multiplier          ...  1.000000
TCutTNO                     ... 1.000e-09
TCutMP2Pairs                ... 1.000e-05
TCutDOStrong                ... 2.000e-02
TCutMKNStrong               ... 1.000e-02
TCutDOWeak                  ... 4.000e-02
TCutMKNWeak                 ... 1.000e-01

Fragment selection                          .... not used
Fock matrix occ-virt block is zero --> Setting DT_in_Triples to false.
Number of Triples that are to be computed   ...      8274

 . . . . . . . . .             (    149.470 sec)
 . . . . . . . . .
10% done  
20% done               (    178.064 sec)
 . . . . . . . . .
30% done  
40% done               (    202.096 sec)
 . . . . . . . . .
50% done  
60% done  
70% done               (    280.265 sec)
 . . . . . . . . .
80% done  
90% done               (    191.874 sec)
Triples timings:
Total time for T0               ...  1078.723 sec
Total time for Iterative (T)    ...     0.000 sec
Total time of overall (T)       ...  1105.598 sec

Triples List generation         ...     0.000 sec
TNO generation                  ...    76.864 sec
Pair density generation         ...     0.025 sec
Look up tables                  ...     0.000 sec
Generating 3-index integrals    ...   687.031 sec
  Make 4-ind.int. from 3-ind.int...    63.240 sec
  Projecting amplitudes (D + S) ...   188.627 sec
  Downprojecting integrals      ...     0.011 sec
  Energy contr. (sum over a,b,c)...    14.184 sec
Fitting ET(->0)                 ...     0.000 sec

Everything after 3-index        ...   314.739 sec

Timing details:
 TNO integrals                  ...   742.499 sec
   Reading 3-index integrals    ...    45.891 sec
   Sorting integrals            ...   148.700 sec
       Sorting integrals 1      ...     0.008 sec
       Sorting integrals 2      ...   126.645 sec
       Sorting integrals 3      ...     5.663 sec
       Sorting integrals 4      ...     0.547 sec
       Sorting integrals 5      ...     1.421 sec
       Sorting integrals 6      ...    14.416 sec
   Calculating local VM**-1/2   ...     3.801 sec
   Orthogonal. integrals        ...     9.488 sec
   Multipl. 3-index integrals   ...   534.619 sec
   All concerning IRIab (w/TNO) ...    32.869 sec

 Calculate W0/W1                ...    48.625 sec
 W 3-ext contribution           ...    24.441 sec
 W 3-int contribution           ...     9.849 sec
 Sorting W                      ...    12.863 sec

 V exchange contribution        ...     4.439 sec

 Timings for Triples without generation
     of 3-index integrals       ...   314.717 sec
       0 weak pairs             ...   222.216 sec
       1 weak pair              ...    92.501 sec
       2 weak pairs             ...     0.000 sec
       3 weak pairs             ...     0.000 sec
  Extra time for extrapolation  ...     0.000 sec

Number of Triples   (0, 1, 2, 3 weak pairs; overall):   4676    3598       0       0  (  8274)
Number of Atoms     (0, 1, 2, 3 weak pairs; overall):   17.6    14.6     0.0     0.0  (    54)
Number of PAOs      (0, 1, 2, 3 weak pairs; overall):  372.0   329.5     0.0     0.0  (   949)
Number of AuxFcns   (0, 1, 2, 3 weak pairs; overall):  469.7   355.8     0.0     0.0  (  2335)
Number of TNOs      (0, 1, 2, 3 weak pairs         ):   85.5    57.4     0.0     0.0
Aver. Number of NTNO, Atoms, PAOs, AuxFcns / Triples:   8274    73.3    16.3   353.5   420.2

Triples Correction (T)                     ...     -0.193229754
Final correlation energy                   ...     -4.472393513
E(CCSD)                                    ...  -1038.191958427
E(CCSD(T))                                 ...  -1038.385188181



--------------------------------------------------------------------------------
                                    TIMINGS
--------------------------------------------------------------------------------


Total execution time                   ...     2947.477 sec

Localization of occupied MO's          ...        6.639 sec (  0.2%)
Fock Matrix Formation                  ...      269.586 sec (  9.1%)
Global overlap, Fock, MKN matrices     ...        1.588 sec (  0.1%)
Differential overlap integrals         ...        4.757 sec (  0.2%)
Organizing maps                        ...        0.228 sec (  0.0%)
RI 3-index integral generations        ...       52.901 sec (  1.8%)
RI-PNO integral transformation         ...      772.489 sec ( 26.2%)
Initial Guess                          ...       90.148 sec (  3.1%)
DIIS Solver                            ...        1.936 sec (  0.1%)
State Vector Update                    ...        0.097 sec (  0.0%)
Sigma-vector construction              ...      640.388 sec ( 21.7%)
  <0|H|D>                              ...        0.003 sec (  0.0% of sigma)
  <D|H|D>(0-ext)                       ...       42.201 sec (  6.6% of sigma)
  <D|H|D>(2-ext Fock)                  ...        0.167 sec (  0.0% of sigma)
  <D|H|D>(2-ext)                       ...       93.933 sec ( 14.7% of sigma)
  <D|H|D>(4-ext)                       ...       42.699 sec (  6.7% of sigma)
  <D|H|D>(4-ext-corr)                  ...      221.439 sec ( 34.6% of sigma)
  CCSD doubles correction              ...        1.453 sec (  0.2% of sigma)
  <S|H|S>                              ...        8.659 sec (  1.4% of sigma)
  <S|H|D>(1-ext)                       ...        4.685 sec (  0.7% of sigma)
  <D|H|S>(1-ext)                       ...        0.527 sec (  0.1% of sigma)
  <S|H|D>(3-ext)                       ...        2.739 sec (  0.4% of sigma)
  CCSD singles correction              ...        0.008 sec (  0.0% of sigma)
  Fock-dressing                        ...      147.202 sec ( 23.0% of sigma)
  Singles amplitudes                   ...        5.135 sec (  0.8% of sigma)
  (ik|jl)-dressing                     ...       29.567 sec (  4.6% of sigma)
  (ij|ab),(ia|jb)-dressing             ...       11.369 sec (  1.8% of sigma)
  Pair energies                        ...        0.112 sec (  0.0% of sigma)
Total Time for computing (T)           ...     1105.641 sec ( 37.5% of ALL)


Maximum memory used throughout the entire MDCI-calculation: 3455.5 MB

-------------------------   --------------------
FINAL SINGLE POINT ENERGY     -1038.385188181119
-------------------------   --------------------


                            ***************************************
                            *     ORCA property calculations      *
                            ***************************************


  WARNING: The energy has been calculated at the MDCI level but the densities
           used in the property calculations are still SCF densities
           MDCI response densities have not been calculated 
           use %mdci Density linearized end
           or  %mdci Density unrelaxed end
           or  %mdci Density orbopt end

                                    ---------------------
                                    Active property flags
                                    ---------------------
   (+) Dipole Moment


------------------------------------------------------------------------------
                       ORCA ELECTRIC PROPERTIES CALCULATION
------------------------------------------------------------------------------

Dipole Moment Calculation                       ... on
Quadrupole Moment Calculation                   ... off
Polarizability Calculation                      ... off
GBWName                                         ... Fentanyl_OProt_12.gbw
Electron density                                ... Fentanyl_OProt_12.scfp
The origin for moment calculation is the CENTER OF MASS  = ( 0.008416, -0.000296 -0.005374)

-------------
DIPOLE MOMENT
-------------
                                X             Y             Z
Electronic contribution:      2.54458      -2.15074       0.74560
Nuclear contribution   :      2.28773       2.44498      -0.32539
                        -----------------------------------------
Total Dipole Moment    :      4.83232       0.29424       0.42020
                        -----------------------------------------
Magnitude (a.u.)       :      4.85947
Magnitude (Debye)      :     12.35178



--------------------
Rotational spectrum 
--------------------
 
Rotational constants in cm-1:     0.012640     0.003850     0.003338 
Rotational constants in MHz :   378.938260   115.425160   100.085604 

 Dipole components along the rotational axes: 
x,y,z [a.u.] :    -4.451621     1.943207    -0.146400 
x,y,z [Debye]:   -11.315122     4.939240    -0.372120 

 

Timings for individual modules:

Sum of individual times         ...     5165.911 sec (=  86.099 min)
GTO integral calculation        ...        2.517 sec (=   0.042 min)   0.0 %
SCF iterations                  ...     2212.389 sec (=  36.873 min)  42.8 %
MDCI module                     ...     2951.005 sec (=  49.183 min)  57.1 %
                             ****ORCA TERMINATED NORMALLY****
TOTAL RUN TIME: 0 days 1 hours 26 minutes 8 seconds 171 msec
